
     Program BANDS v.7.3.1 starts on 19Dec2024 at 18:56:50 

     This program is part of the open-source Quantum ESPRESSO suite
     for quantum simulation of materials; please cite
         "P. Giannozzi et al., J. Phys.:Condens. Matter 21 395502 (2009);
         "P. Giannozzi et al., J. Phys.:Condens. Matter 29 465901 (2017);
         "P. Giannozzi et al., J. Chem. Phys. 152 154105 (2020);
          URL http://www.quantum-espresso.org", 
     in publications or presentations arising from this work. More details at
     http://www.quantum-espresso.org/quote

     Serial version
     110332 MiB available memory on the printing compute node when the environment starts


     Reading xml data from directory:

     ./silicon.save/

     IMPORTANT: XC functional enforced from input :
     Exchange-correlation= PBESOL
                           (   1   4  10   8   0   0   0)
     Any further DFT definition will be discarded
     Please, verify this is what you really want


     G-vector sticks info
     --------------------
     sticks:   dense  smooth     PW     G-vecs:    dense   smooth      PW
     Sum         583     583    169                 9257     9257    1471

     Using Slab Decomposition


     Check: negative core charge=   -0.000003
     Reading collected, re-writing distributed wavefunctions
     high-symmetry point: -0.5000 0.5000 0.5000   x coordinate   0.0000
     high-symmetry point:  0.0000 0.0000 0.0000   x coordinate   0.8660
     high-symmetry point: -1.0000 0.0000 0.0000   x coordinate   1.8660
     high-symmetry point: -1.0000 0.2500 0.2500   x coordinate   2.2196
     high-symmetry point: -0.7500 0.0000 0.7500   x coordinate   2.2196
     high-symmetry point:  0.0000 0.0000 0.0000   x coordinate   3.2802

     Plottable bands (eV) written to file Si_bands.dat.gnu
     Bands written to file Si_bands.dat

 **************************************************************************

                    xk=(  -0.50000,   0.50000,   0.50000  )

     point group C_s (m)    
     there are  2 classes
     the character table:

       E     s    
A'     1.00  1.00
A''    1.00 -1.00

     the symmetry operations in each class and the name of the first element:

     E        1
                                                                 
     s        2
                                                                 

     Band symmetry, C_s (m)     point group:

     e(  1 -  1) =     -3.47138  eV     1   --> A'             
     e(  2 -  2) =     -0.84639  eV     1   --> A'             
     e(  3 -  3) =      4.96678  eV     1   --> A'             
     e(  4 -  4) =      4.96706  eV     1   --> A''            
     e(  5 -  5) =      7.63712  eV     1   --> A'             
     e(  6 -  6) =      9.45393  eV     1   --> A''            
     e(  7 -  7) =      9.45427  eV     1   --> A'             
     e(  8 -  8) =     13.69261  eV     1   --> A'             
     e(  9 - 10) =     16.69755  eV     2   --> A'             
     e(  9 - 10) =     16.69755  eV     2   --> A''            
     e( 11 - 11) =     17.38141  eV     1   --> A'             
     e( 12 - 12) =     17.45481  eV     1   --> A'             

 **************************************************************************

 **************************************************************************

                    xk=(  -0.46667,   0.46667,   0.46667  )

     Band symmetry, C_s (m)     point group:

     e(  1 -  1) =     -3.53473  eV     1   --> A'             
     e(  2 -  2) =     -0.75547  eV     1   --> A'             
     e(  3 -  3) =      4.97473  eV     1   --> A'             
     e(  4 -  4) =      4.97501  eV     1   --> A''            
     e(  5 -  5) =      7.64633  eV     1   --> A'             
     e(  6 -  6) =      9.46349  eV     1   --> A''            
     e(  7 -  7) =      9.46384  eV     1   --> A'             
     e(  8 -  8) =     13.70763  eV     1   --> A'             
     e(  9 - 10) =     16.29659  eV     2   --> A'             
     e(  9 - 10) =     16.29659  eV     2   --> A''            
     e( 11 - 11) =     17.16212  eV     1   --> A'             
     e( 12 - 12) =     17.88920  eV     1   -->   ?

 **************************************************************************

 **************************************************************************

                    xk=(  -0.43333,   0.43333,   0.43333  )

     Band symmetry, C_s (m)     point group:

     e(  1 -  1) =     -3.70227  eV     1   --> A'             
     e(  2 -  2) =     -0.50532  eV     1   --> A'             
     e(  3 -  3) =      4.99858  eV     1   --> A'             
     e(  4 -  4) =      4.99886  eV     1   --> A''            
     e(  5 -  5) =      7.67391  eV     1   --> A'             
     e(  6 -  6) =      9.49102  eV     1   --> A''            
     e(  7 -  7) =      9.49136  eV     1   --> A'             
     e(  8 -  8) =     13.75078  eV     1   --> A'             
     e(  9 -  9) =     15.69771  eV     1   --> A'             
     e( 10 - 10) =     15.69781  eV     1   --> A''            
     e( 11 - 11) =     16.68604  eV     1   --> A'             
     e( 12 - 12) =     18.58751  eV     1   -->   ?

 **************************************************************************

 **************************************************************************

                    xk=(  -0.40000,   0.40000,   0.40000  )

     Band symmetry, C_s (m)     point group:

     e(  1 -  1) =     -3.93018  eV     1   --> A'             
     e(  2 -  2) =     -0.14014  eV     1   --> A'             
     e(  3 -  3) =      5.03829  eV     1   --> A'             
     e(  4 -  4) =      5.03856  eV     1   --> A''            
     e(  5 -  5) =      7.71967  eV     1   --> A'             
     e(  6 -  6) =      9.53285  eV     1   --> A''            
     e(  7 -  7) =      9.53319  eV     1   --> A'             
     e(  8 -  8) =     13.81473  eV     1   --> A'             
     e(  9 -  9) =     15.11625  eV     1   --> A'             
     e( 10 - 10) =     15.11637  eV     1   --> A''            
     e( 11 - 11) =     16.13742  eV     1   --> A'             
     e( 12 - 12) =     19.33022  eV     1   -->   ?

 **************************************************************************

 **************************************************************************

                    xk=(  -0.36667,   0.36667,   0.36667  )

     Band symmetry, C_s (m)     point group:

     e(  1 -  1) =     -4.18282  eV     1   --> A'             
     e(  2 -  2) =      0.30386  eV     1   --> A'             
     e(  3 -  3) =      5.09372  eV     1   --> A'             
     e(  4 -  4) =      5.09400  eV     1   --> A''            
     e(  5 -  5) =      7.78324  eV     1   --> A'             
     e(  6 -  6) =      9.58235  eV     1   --> A''            
     e(  7 -  7) =      9.58269  eV     1   --> A'             
     e(  8 -  8) =     13.87907  eV     1   --> A'             
     e(  9 -  9) =     14.58178  eV     1   --> A'             
     e( 10 - 10) =     14.58190  eV     1   --> A''            
     e( 11 - 11) =     15.59489  eV     1   --> A'             
     e( 12 - 12) =     20.06611  eV     1   --> A'             

 **************************************************************************

 **************************************************************************

                    xk=(  -0.33333,   0.33333,   0.33333  )

     Band symmetry, C_s (m)     point group:

     e(  1 -  1) =     -4.43832  eV     1   --> A'             
     e(  2 -  2) =      0.80382  eV     1   --> A'             
     e(  3 -  3) =      5.16465  eV     1   --> A'             
     e(  4 -  4) =      5.16492  eV     1   --> A''            
     e(  5 -  5) =      7.86402  eV     1   --> A'             
     e(  6 -  6) =      9.62932  eV     1   --> A''            
     e(  7 -  7) =      9.62965  eV     1   --> A'             
     e(  8 -  8) =     13.88341  eV     1   --> A'             
     e(  9 -  9) =     14.11038  eV     1   --> A'             
     e( 10 - 10) =     14.11051  eV     1   --> A''            
     e( 11 - 11) =     15.13553  eV     1   --> A'             
     e( 12 - 12) =     19.62078  eV     1   --> A'             

 **************************************************************************

 **************************************************************************

                    xk=(  -0.30000,   0.30000,   0.30000  )

     Band symmetry, C_s (m)     point group:

     e(  1 -  1) =     -4.68409  eV     1   --> A'             
     e(  2 -  2) =      1.34585  eV     1   --> A'             
     e(  3 -  3) =      5.25056  eV     1   --> A'             
     e(  4 -  4) =      5.25084  eV     1   --> A''            
     e(  5 -  5) =      7.96098  eV     1   --> A'             
     e(  6 -  6) =      9.65960  eV     1   --> A''            
     e(  7 -  7) =      9.65993  eV     1   --> A'             
     e(  8 -  8) =     13.69328  eV     1   --> A'             
     e(  9 -  9) =     13.71830  eV     1   --> A'             
     e( 10 - 10) =     13.71842  eV     1   --> A''            
     e( 11 - 11) =     14.89534  eV     1   --> A'             
     e( 12 - 12) =     18.93266  eV     1   --> A'             

 **************************************************************************

 **************************************************************************

                    xk=(  -0.26667,   0.26667,   0.26667  )

     Band symmetry, C_s (m)     point group:

     e(  1 -  1) =     -4.91284  eV     1   --> A'             
     e(  2 -  2) =      1.92075  eV     1   --> A'             
     e(  3 -  3) =      5.35059  eV     1   --> A'             
     e(  4 -  4) =      5.35087  eV     1   --> A''            
     e(  5 -  5) =      8.07255  eV     1   --> A'             
     e(  6 -  6) =      9.65638  eV     1   --> A''            
     e(  7 -  7) =      9.65670  eV     1   --> A'             
     e(  8 -  8) =     13.26949  eV     1   --> A'             
     e(  9 -  9) =     13.42302  eV     1   --> A'             
     e( 10 - 10) =     13.42313  eV     1   --> A''            
     e( 11 - 11) =     14.90484  eV     1   --> A'             
     e( 12 - 12) =     18.19401  eV     1   --> A'             

 **************************************************************************

 **************************************************************************

                    xk=(  -0.23333,   0.23333,   0.23333  )

     Band symmetry, C_s (m)     point group:

     e(  1 -  1) =     -5.12014  eV     1   --> A'             
     e(  2 -  2) =      2.52139  eV     1   --> A'             
     e(  3 -  3) =      5.46329  eV     1   --> A'             
     e(  4 -  4) =      5.46357  eV     1   --> A''            
     e(  5 -  5) =      8.19625  eV     1   --> A'             
     e(  6 -  6) =      9.60470  eV     1   --> A''            
     e(  7 -  7) =      9.60499  eV     1   --> A'             
     e(  8 -  8) =     12.73346  eV     1   --> A'             
     e(  9 - 10) =     13.23934  eV     2   --> A'             
     e(  9 - 10) =     13.23934  eV     2   --> A''            
     e( 11 - 11) =     15.01898  eV     1   --> A'             
     e( 12 - 12) =     17.50189  eV     1   --> A'             

 **************************************************************************

 **************************************************************************

                    xk=(  -0.20000,   0.20000,   0.20000  )

     Band symmetry, C_s (m)     point group:

     e(  1 -  1) =     -5.30321  eV     1   --> A'             
     e(  2 -  2) =      3.14103  eV     1   --> A'             
     e(  3 -  3) =      5.58630  eV     1   --> A'             
     e(  4 -  4) =      5.58659  eV     1   --> A''            
     e(  5 -  5) =      8.32824  eV     1   --> A'             
     e(  6 -  6) =      9.49881  eV     1   --> A''            
     e(  7 -  7) =      9.49907  eV     1   --> A'             
     e(  8 -  8) =     12.15670  eV     1   --> A'             
     e(  9 - 10) =     13.17200  eV     2   --> A'             
     e(  9 - 10) =     13.17200  eV     2   --> A''            
     e( 11 - 11) =     15.10866  eV     1   --> A'             
     e( 12 - 12) =     16.94507  eV     1   --> A'             

 **************************************************************************

 **************************************************************************

                    xk=(  -0.16667,   0.16667,   0.16667  )

     Band symmetry, C_s (m)     point group:

     e(  1 -  1) =     -5.46023  eV     1   --> A'             
     e(  2 -  2) =      3.77177  eV     1   --> A'             
     e(  3 -  3) =      5.71594  eV     1   --> A'             
     e(  4 -  4) =      5.71624  eV     1   --> A''            
     e(  5 -  5) =      8.46261  eV     1   --> A'             
     e(  6 -  6) =      9.34703  eV     1   --> A''            
     e(  7 -  7) =      9.34727  eV     1   --> A'             
     e(  8 -  8) =     11.56507  eV     1   --> A'             
     e(  9 - 10) =     13.21064  eV     2   --> A'             
     e(  9 - 10) =     13.21064  eV     2   --> A''            
     e( 11 - 11) =     15.04005  eV     1   --> A'             
     e( 12 - 12) =     16.64950  eV     1   --> A'             

 **************************************************************************

 **************************************************************************

                    xk=(  -0.13333,   0.13333,   0.13333  )

     Band symmetry, C_s (m)     point group:

     e(  1 -  1) =     -5.58998  eV     1   --> A'             
     e(  2 -  2) =      4.40242  eV     1   --> A'             
     e(  3 -  3) =      5.84657  eV     1   --> A'             
     e(  4 -  4) =      5.84688  eV     1   --> A''            
     e(  5 -  5) =      8.59004  eV     1   --> A'             
     e(  6 -  6) =      9.16933  eV     1   --> A''            
     e(  7 -  7) =      9.16956  eV     1   --> A'             
     e(  8 -  8) =     10.97450  eV     1   --> A'             
     e(  9 - 10) =     13.33139  eV     2   --> A'             
     e(  9 - 10) =     13.33139  eV     2   --> A''            
     e( 11 - 11) =     14.76958  eV     1   --> A'             
     e( 12 - 12) =     16.65787  eV     1   --> A'             

 **************************************************************************

 **************************************************************************

                    xk=(  -0.10000,   0.10000,   0.10000  )

     Band symmetry, C_s (m)     point group:

     e(  1 -  1) =     -5.69160  eV     1   --> A'             
     e(  2 -  2) =      5.01428  eV     1   --> A'             
     e(  3 -  3) =      5.96980  eV     1   --> A'             
     e(  4 -  4) =      5.97012  eV     1   --> A''            
     e(  5 -  5) =      8.69532  eV     1   --> A'             
     e(  6 -  6) =      8.99092  eV     1   --> A''            
     e(  7 -  7) =      8.99114  eV     1   --> A'             
     e(  8 -  8) =     10.40844  eV     1   --> A'             
     e(  9 - 10) =     13.50157  eV     2   --> A'             
     e(  9 - 10) =     13.50157  eV     2   --> A''            
     e( 11 - 11) =     14.42979  eV     1   --> A'             
     e( 12 - 12) =     16.83342  eV     1   --> A'             

 **************************************************************************

 **************************************************************************

                    xk=(  -0.06667,   0.06667,   0.06667  )

     Band symmetry, C_s (m)     point group:

     e(  1 -  1) =     -5.76455  eV     1   --> A'             
     e(  2 -  2) =      5.57147  eV     1   --> A'             
     e(  3 -  3) =      6.07404  eV     1   --> A'             
     e(  4 -  4) =      6.07437  eV     1   --> A''            
     e(  5 -  5) =      8.75274  eV     1   --> A'             
     e(  6 -  6) =      8.83761  eV     1   --> A''            
     e(  7 -  7) =      8.83783  eV     1   --> A'             
     e(  8 -  8) =      9.91573  eV     1   --> A'             
     e(  9 - 10) =     13.68116  eV     2   --> A'             
     e(  9 - 10) =     13.68116  eV     2   --> A''            
     e( 11 - 11) =     14.13631  eV     1   --> A'             
     e( 12 - 12) =     17.04656  eV     1   --> A'             

 **************************************************************************

 **************************************************************************

                    xk=(  -0.03333,   0.03333,   0.03333  )

     Band symmetry, C_s (m)     point group:

     e(  1 -  1) =     -5.80845  eV     1   --> A'             
     e(  2 -  2) =      5.99985  eV     1   --> A'             
     e(  3 -  3) =      6.14526  eV     1   --> A'             
     e(  4 -  4) =      6.14561  eV     1   --> A''            
     e(  5 -  5) =      8.73325  eV     1   --> A''            
     e(  6 -  6) =      8.73345  eV     1   --> A'             
     e(  7 -  7) =      8.73403  eV     1   --> A'             
     e(  8 -  8) =      9.58599  eV     1   --> A'             
     e(  9 - 10) =     13.82217  eV     2   --> A'             
     e(  9 - 10) =     13.82217  eV     2   --> A''            
     e( 11 - 11) =     13.94364  eV     1   --> A'             
     e( 12 - 12) =     17.21527  eV     1   --> A'             

 **************************************************************************

 **************************************************************************

                    xk=(   0.00000,   0.00000,   0.00000  )

     point group C_3v (3m)  
     there are  3 classes
     the character table:

       E     2C3   3s_v 
A_1    1.00  1.00  1.00
A_2    1.00  1.00 -1.00
E      2.00 -1.00  0.00

     the symmetry operations in each class and the name of the first element:

     E        1
                                                                 
     2C3      2    3
                                                                 
     3s_v     4    5    6
                                                                 

     Band symmetry, C_3v (3m)   point group:

     e(  1 -  1) =     -5.82311  eV     1   --> A_1  L_1       
     e(  2 -  2) =      6.17074  eV     1   --> A_1  L_1       
     e(  3 -  4) =      6.17113  eV     2   --> E    L_3       
     e(  5 -  6) =      8.69609  eV     2   --> E    L_3       
     e(  7 -  7) =      8.69633  eV     1   --> A_1  L_1       
     e(  8 -  8) =      9.48060  eV     1   --> A_1  L_1       
     e(  9 - 10) =     13.87654  eV     2   --> E    L_3       
     e( 11 - 11) =     13.87684  eV     1   --> A_1  L_1       
     e( 12 - 12) =     17.27982  eV     1   -->   ?

 **************************************************************************

 **************************************************************************

                    xk=(  -0.06667,   0.00000,   0.00000  )

     point group C_s (m)    
     there are  2 classes
     the character table:

       E     s    
A'     1.00  1.00
A''    1.00 -1.00

     the symmetry operations in each class and the name of the first element:

     E        1
                                                                 
     s        2
                                                                 

     Band symmetry, C_s (m)     point group:

     e(  1 -  1) =     -5.80356  eV     1   --> A'             
     e(  2 -  2) =      6.03994  eV     1   --> A'             
     e(  3 -  3) =      6.08727  eV     1   --> A'             
     e(  4 -  4) =      6.08752  eV     1   --> A''            
     e(  5 -  5) =      8.64562  eV     1   --> A'             
     e(  6 -  6) =      8.80353  eV     1   --> A''            
     e(  7 -  7) =      8.80368  eV     1   --> A'             
     e(  8 -  8) =      9.60840  eV     1   --> A'             
     e(  9 -  9) =     13.71362  eV     1   --> A'             
     e( 10 - 10) =     13.89807  eV     1   --> A''            
     e( 11 - 11) =     13.96573  eV     1   --> A'             
     e( 12 - 12) =     17.31402  eV     1   -->   ?

 **************************************************************************

 **************************************************************************

                    xk=(  -0.13333,   0.00000,   0.00000  )

     Band symmetry, C_s (m)     point group:

     e(  1 -  1) =     -5.74497  eV     1   --> A'             
     e(  2 -  2) =      5.69692  eV     1   --> A'             
     e(  3 -  3) =      5.87140  eV     1   --> A'             
     e(  4 -  4) =      5.87161  eV     1   --> A''            
     e(  5 -  5) =      8.50470  eV     1   --> A'             
     e(  6 -  6) =      9.09071  eV     1   --> A''            
     e(  7 -  7) =      9.09083  eV     1   --> A'             
     e(  8 -  8) =      9.93017  eV     1   --> A'             
     e(  9 -  9) =     13.31337  eV     1   --> A'             
     e( 10 - 10) =     13.96267  eV     1   --> A''            
     e( 11 - 11) =     14.22136  eV     1   --> A'             
     e( 12 - 12) =     17.41653  eV     1   -->   ?

 **************************************************************************

 **************************************************************************

                    xk=(  -0.20000,   0.00000,   0.00000  )

     Band symmetry, C_s (m)     point group:

     e(  1 -  1) =     -5.64748  eV     1   --> A'             
     e(  2 -  2) =      5.22905  eV     1   --> A'             
     e(  3 -  3) =      5.58558  eV     1   --> A'             
     e(  4 -  4) =      5.58577  eV     1   --> A''            
     e(  5 -  5) =      8.29900  eV     1   --> A'             
     e(  6 -  7) =      9.49464  eV     2   --> A'             
     e(  6 -  7) =      9.49464  eV     2   --> A''            
     e(  8 -  8) =     10.30900  eV     1   --> A'             
     e(  9 -  9) =     12.85689  eV     1   --> A'             
     e( 10 - 10) =     14.07031  eV     1   --> A''            
     e( 11 - 11) =     14.61714  eV     1   --> A'             
     e( 12 - 12) =     17.58677  eV     1   -->   ?

 **************************************************************************

 **************************************************************************

                    xk=(  -0.26667,   0.00000,   0.00000  )

     Band symmetry, C_s (m)     point group:

     e(  1 -  1) =     -5.51133  eV     1   --> A'             
     e(  2 -  2) =      4.69604  eV     1   --> A'             
     e(  3 -  3) =      5.27470  eV     1   --> A'             
     e(  4 -  4) =      5.27486  eV     1   --> A''            
     e(  5 -  5) =      8.05685  eV     1   --> A'             
     e(  6 -  7) =      9.96948  eV     2   --> A'             
     e(  6 -  7) =      9.96948  eV     2   --> A''            
     e(  8 -  8) =     10.53929  eV     1   --> A'             
     e(  9 -  9) =     12.57960  eV     1   --> A'             
     e( 10 - 10) =     14.22096  eV     1   --> A''            
     e( 11 - 11) =     15.12285  eV     1   --> A'             
     e( 12 - 12) =     17.82340  eV     1   -->   ?

 **************************************************************************

 **************************************************************************

                    xk=(  -0.33333,   0.00000,   0.00000  )

     Band symmetry, C_s (m)     point group:

     e(  1 -  1) =     -5.33686  eV     1   --> A'             
     e(  2 -  2) =      4.12922  eV     1   --> A'             
     e(  3 -  3) =      4.96381  eV     1   --> A'             
     e(  4 -  4) =      4.96395  eV     1   --> A''            
     e(  5 -  5) =      7.80194  eV     1   --> A'             
     e(  6 -  6) =     10.39732  eV     1   --> A'             
     e(  7 -  8) =     10.48900  eV     2   --> A'             
     e(  7 -  8) =     10.48900  eV     2   --> A''            
     e(  9 -  9) =     12.72216  eV     1   --> A'             
     e( 10 - 10) =     14.41454  eV     1   --> A''            
     e( 11 - 11) =     15.71165  eV     1   --> A'             
     e( 12 - 12) =     18.12324  eV     1   -->   ?

 **************************************************************************

 **************************************************************************

                    xk=(  -0.40000,   0.00000,   0.00000  )

     Band symmetry, C_s (m)     point group:

     e(  1 -  1) =     -5.12452  eV     1   --> A'             
     e(  2 -  2) =      3.54439  eV     1   --> A'             
     e(  3 -  3) =      4.66658  eV     1   --> A'             
     e(  4 -  4) =      4.66671  eV     1   --> A''            
     e(  5 -  5) =      7.55173  eV     1   --> A'             
     e(  6 -  6) =      9.97234  eV     1   --> A'             
     e(  7 -  8) =     11.03840  eV     2   --> A'             
     e(  7 -  8) =     11.03840  eV     2   --> A''            
     e(  9 -  9) =     13.20434  eV     1   --> A'             
     e( 10 - 10) =     14.65095  eV     1   --> A''            
     e( 11 - 11) =     16.36089  eV     1   --> A'             
     e( 12 - 12) =     18.47915  eV     1   -->   ?

 **************************************************************************

 **************************************************************************

                    xk=(  -0.46667,   0.00000,   0.00000  )

     Band symmetry, C_s (m)     point group:

     e(  1 -  1) =     -4.87489  eV     1   --> A'             
     e(  2 -  2) =      2.94999  eV     1   --> A'             
     e(  3 -  3) =      4.39082  eV     1   --> A'             
     e(  4 -  4) =      4.39093  eV     1   --> A''            
     e(  5 -  5) =      7.31856  eV     1   --> A'             
     e(  6 -  6) =      9.46097  eV     1   --> A'             
     e(  7 -  8) =     11.60890  eV     2   --> A'             
     e(  7 -  8) =     11.60890  eV     2   --> A''            
     e(  9 -  9) =     13.83326  eV     1   --> A'             
     e( 10 - 10) =     14.93015  eV     1   --> A''            
     e( 11 - 11) =     17.04971  eV     1   --> A'             
     e( 12 - 12) =     18.87504  eV     1   -->   ?

 **************************************************************************

 **************************************************************************

                    xk=(  -0.53333,   0.00000,   0.00000  )

     Band symmetry, C_s (m)     point group:

     e(  1 -  1) =     -4.58870  eV     1   --> A'             
     e(  2 -  2) =      2.35118  eV     1   --> A'             
     e(  3 -  3) =      4.14128  eV     1   --> A'             
     e(  4 -  4) =      4.14139  eV     1   --> A''            
     e(  5 -  5) =      7.11113  eV     1   --> A'             
     e(  6 -  6) =      8.95126  eV     1   --> A'             
     e(  7 -  8) =     12.19512  eV     2   --> A'             
     e(  7 -  8) =     12.19512  eV     2   --> A''            
     e(  9 -  9) =     14.52068  eV     1   --> A'             
     e( 10 - 10) =     15.25200  eV     1   --> A''            
     e( 11 - 11) =     17.75491  eV     1   --> A'             
     e( 12 - 12) =     19.27225  eV     1   -->   ?

 **************************************************************************

 **************************************************************************

                    xk=(  -0.60000,   0.00000,   0.00000  )

     Band symmetry, C_s (m)     point group:

     e(  1 -  1) =     -4.26681  eV     1   --> A'             
     e(  2 -  2) =      1.75182  eV     1   --> A'             
     e(  3 -  3) =      3.92104  eV     1   --> A'             
     e(  4 -  4) =      3.92115  eV     1   --> A''            
     e(  5 -  5) =      6.93574  eV     1   --> A'             
     e(  6 -  6) =      8.47653  eV     1   --> A'             
     e(  7 -  8) =     12.79378  eV     2   --> A'             
     e(  7 -  8) =     12.79378  eV     2   --> A''            
     e(  9 -  9) =     15.23008  eV     1   --> A'             
     e( 10 - 10) =     15.61631  eV     1   --> A''            
     e( 11 - 11) =     18.44496  eV     1   --> A'             
     e( 12 - 12) =     19.57526  eV     1   -->   ?

 **************************************************************************

 **************************************************************************

                    xk=(  -0.66667,   0.00000,   0.00000  )

     Band symmetry, C_s (m)     point group:

     e(  1 -  1) =     -3.91026  eV     1   --> A'             
     e(  2 -  2) =      1.15540  eV     1   --> A'             
     e(  3 -  4) =      3.73217  eV     2   --> A'             
     e(  3 -  4) =      3.73217  eV     2   --> A''            
     e(  5 -  5) =      6.79711  eV     1   --> A'             
     e(  6 -  6) =      8.05078  eV     1   --> A'             
     e(  7 -  8) =     13.40290  eV     2   --> A'             
     e(  7 -  8) =     13.40290  eV     2   --> A''            
     e(  9 -  9) =     15.94186  eV     1   --> A'             
     e( 10 - 10) =     16.02293  eV     1   --> A''            
     e( 11 - 11) =     19.07105  eV     1   --> A'             
     e( 12 - 12) =     19.60444  eV     1   -->   ?

 **************************************************************************

 **************************************************************************

                    xk=(  -0.73333,   0.00000,   0.00000  )

     Band symmetry, C_s (m)     point group:

     e(  1 -  1) =     -3.52031  eV     1   --> A'             
     e(  2 -  2) =      0.56539  eV     1   --> A'             
     e(  3 -  4) =      3.57609  eV     2   --> A'             
     e(  3 -  4) =      3.57609  eV     2   --> A''            
     e(  5 -  5) =      6.69894  eV     1   --> A'             
     e(  6 -  6) =      7.68009  eV     1   --> A'             
     e(  7 -  8) =     14.02110  eV     2   --> A'             
     e(  7 -  8) =     14.02110  eV     2   --> A''            
     e(  9 -  9) =     16.47163  eV     1   --> A''            
     e( 10 - 10) =     16.64278  eV     1   --> A'             
     e( 11 - 12) =     19.27310  eV     2   --> A'             
     e( 11 - 12) =     19.27310  eV     2   --> A''            

 **************************************************************************

 **************************************************************************

                    xk=(  -0.80000,   0.00000,   0.00000  )

     Band symmetry, C_s (m)     point group:

     e(  1 -  1) =     -3.09843  eV     1   --> A'             
     e(  2 -  2) =     -0.01465  eV     1   --> A'             
     e(  3 -  4) =      3.45381  eV     2   --> A'             
     e(  3 -  4) =      3.45381  eV     2   --> A''            
     e(  5 -  5) =      6.64432  eV     1   --> A'             
     e(  6 -  6) =      7.36673  eV     1   --> A'             
     e(  7 -  8) =     14.64631  eV     2   --> A'             
     e(  7 -  8) =     14.64631  eV     2   --> A''            
     e(  9 -  9) =     16.96215  eV     1   --> A''            
     e( 10 - 10) =     17.32211  eV     1   --> A'             
     e( 11 - 12) =     18.72413  eV     2   --> A'             
     e( 11 - 12) =     18.72413  eV     2   --> A''            

 **************************************************************************

 **************************************************************************

                    xk=(  -0.86667,   0.00000,   0.00000  )

     Band symmetry, C_s (m)     point group:

     e(  1 -  1) =     -2.64635  eV     1   --> A'             
     e(  2 -  2) =     -0.58116  eV     1   --> A'             
     e(  3 -  4) =      3.36602  eV     2   --> A'             
     e(  3 -  4) =      3.36602  eV     2   --> A''            
     e(  5 -  5) =      6.63593  eV     1   --> A'             
     e(  6 -  6) =      7.11090  eV     1   --> A'             
     e(  7 -  8) =     15.27241  eV     2   --> A'             
     e(  7 -  8) =     15.27241  eV     2   --> A''            
     e(  9 -  9) =     17.49418  eV     1   --> A''            
     e( 10 - 10) =     17.96935  eV     1   --> A'             
     e( 11 - 12) =     18.09902  eV     2   --> A'             
     e( 11 - 12) =     18.09902  eV     2   --> A''            

 **************************************************************************

 **************************************************************************

                    xk=(  -0.93333,   0.00000,   0.00000  )

     Band symmetry, C_s (m)     point group:

     e(  1 -  1) =     -2.16610  eV     1   --> A'             
     e(  2 -  2) =     -1.13069  eV     1   --> A'             
     e(  3 -  4) =      3.31317  eV     2   --> A'             
     e(  3 -  4) =      3.31317  eV     2   --> A''            
     e(  5 -  5) =      6.67619  eV     1   --> A'             
     e(  6 -  6) =      6.91165  eV     1   --> A'             
     e(  7 -  8) =     15.87201  eV     2   --> A'             
     e(  7 -  8) =     15.87201  eV     2   --> A''            
     e(  9 - 10) =     17.48519  eV     2   --> A'             
     e(  9 - 10) =     17.48519  eV     2   --> A''            
     e( 11 - 11) =     18.06735  eV     1   --> A''            
     e( 12 - 12) =     18.57105  eV     1   --> A'             

 **************************************************************************

 **************************************************************************

                    xk=(  -1.00000,   0.00000,   0.00000  )

     Band symmetry, C_s (m)     point group:

     e(  1 -  1) =     -1.66008  eV     1   --> A'             
     e(  2 -  2) =     -1.65991  eV     1   --> A'             
     e(  3 -  4) =      3.29553  eV     2   --> A'             
     e(  3 -  4) =      3.29553  eV     2   --> A''            
     e(  5 -  5) =      6.76732  eV     1   --> A'             
     e(  6 -  6) =      6.76747  eV     1   --> A'             
     e(  7 -  8) =     16.23323  eV     2   --> A'             
     e(  7 -  8) =     16.23323  eV     2   --> A''            
     e(  9 - 10) =     17.11725  eV     2   --> A'             
     e(  9 - 10) =     17.11725  eV     2   --> A''            
     e( 11 - 11) =     18.68106  eV     1   --> A''            
     e( 12 - 12) =     18.68133  eV     1   --> A''            

 **************************************************************************

 **************************************************************************

                    xk=(  -1.00000,   0.01667,   0.01667  )

     Band symmetry, C_s (m)     point group:

     e(  1 -  1) =     -1.66085  eV     1   --> A'             
     e(  2 -  2) =     -1.65745  eV     1   --> A'             
     e(  3 -  3) =      3.27802  eV     1   --> A'             
     e(  4 -  4) =      3.29759  eV     1   --> A''            
     e(  5 -  5) =      6.76974  eV     1   --> A'             
     e(  6 -  6) =      6.79281  eV     1   --> A'             
     e(  7 -  7) =     16.20569  eV     1   --> A''            
     e(  8 -  8) =     16.21831  eV     1   --> A'             
     e(  9 -  9) =     17.07705  eV     1   --> A'             
     e( 10 - 10) =     17.08589  eV     1   --> A''            
     e( 11 - 11) =     18.71031  eV     1   --> A''            
     e( 12 - 12) =     18.71215  eV     1   --> A''            

 **************************************************************************

 **************************************************************************

                    xk=(  -1.00000,   0.03333,   0.03333  )

     Band symmetry, C_s (m)     point group:

     e(  1 -  1) =     -1.66373  eV     1   --> A'             
     e(  2 -  2) =     -1.64956  eV     1   --> A'             
     e(  3 -  3) =      3.22718  eV     1   --> A'             
     e(  4 -  4) =      3.30349  eV     1   --> A''            
     e(  5 -  5) =      6.77658  eV     1   --> A'             
     e(  6 -  6) =      6.86763  eV     1   --> A'             
     e(  7 -  7) =     16.12680  eV     1   --> A''            
     e(  8 -  8) =     16.17437  eV     1   --> A'             
     e(  9 -  9) =     16.96575  eV     1   --> A'             
     e( 10 - 10) =     16.99845  eV     1   --> A''            
     e( 11 - 11) =     18.79431  eV     1   --> A''            
     e( 12 - 12) =     18.79795  eV     1   --> A''            

 **************************************************************************

 **************************************************************************

                    xk=(  -1.00000,   0.05000,   0.05000  )

     Band symmetry, C_s (m)     point group:

     e(  1 -  1) =     -1.66870  eV     1   --> A'             
     e(  2 -  2) =     -1.63641  eV     1   --> A'             
     e(  3 -  3) =      3.14754  eV     1   --> A'             
     e(  4 -  4) =      3.31332  eV     1   --> A''            
     e(  5 -  5) =      6.78797  eV     1   --> A'             
     e(  6 -  6) =      6.98741  eV     1   --> A'             
     e(  7 -  7) =     16.00568  eV     1   --> A''            
     e(  8 -  8) =     16.10402  eV     1   --> A'             
     e(  9 -  9) =     16.80332  eV     1   --> A'             
     e( 10 - 10) =     16.86946  eV     1   --> A''            
     e( 11 - 11) =     18.92383  eV     1   --> A''            
     e( 12 - 12) =     18.92416  eV     1   --> A''            

 **************************************************************************

 **************************************************************************

                    xk=(  -1.00000,   0.06667,   0.06667  )

     Band symmetry, C_s (m)     point group:

     e(  1 -  1) =     -1.67603  eV     1   --> A'             
     e(  2 -  2) =     -1.61801  eV     1   --> A'             
     e(  3 -  3) =      3.04519  eV     1   --> A'             
     e(  4 -  4) =      3.32705  eV     1   --> A''            
     e(  5 -  5) =      6.80390  eV     1   --> A'             
     e(  6 -  6) =      7.14627  eV     1   --> A'             
     e(  7 -  7) =     15.85294  eV     1   --> A''            
     e(  8 -  8) =     16.01085  eV     1   --> A'             
     e(  9 -  9) =     16.60848  eV     1   --> A'             
     e( 10 - 10) =     16.71299  eV     1   --> A''            
     e( 11 - 11) =     19.07668  eV     1   --> A''            
     e( 12 - 12) =     19.08825  eV     1   --> A''            

 **************************************************************************

 **************************************************************************

                    xk=(  -1.00000,   0.08333,   0.08333  )

     Band symmetry, C_s (m)     point group:

     e(  1 -  1) =     -1.68608  eV     1   --> A'             
     e(  2 -  2) =     -1.59434  eV     1   --> A'             
     e(  3 -  3) =      2.92661  eV     1   --> A'             
     e(  4 -  4) =      3.34468  eV     1   --> A''            
     e(  5 -  5) =      6.82435  eV     1   --> A'             
     e(  6 -  6) =      7.33808  eV     1   --> A'             
     e(  7 -  7) =     15.67785  eV     1   --> A''            
     e(  8 -  8) =     15.89876  eV     1   --> A'             
     e(  9 -  9) =     16.39436  eV     1   --> A'             
     e( 10 - 10) =     16.53924  eV     1   --> A''            
     e( 11 - 11) =     19.24533  eV     1   --> A''            
     e( 12 - 12) =     19.27804  eV     1   --> A''            

 **************************************************************************

 **************************************************************************

                    xk=(  -1.00000,   0.10000,   0.10000  )

     Band symmetry, C_s (m)     point group:

     e(  1 -  1) =     -1.69933  eV     1   --> A'             
     e(  2 -  2) =     -1.56543  eV     1   --> A'             
     e(  3 -  3) =      2.79781  eV     1   --> A'             
     e(  4 -  4) =      3.36618  eV     1   --> A''            
     e(  5 -  5) =      6.84929  eV     1   --> A'             
     e(  6 -  6) =      7.55725  eV     1   --> A'             
     e(  7 -  7) =     15.48753  eV     1   --> A''            
     e(  8 -  8) =     15.77149  eV     1   --> A'             
     e(  9 -  9) =     16.16929  eV     1   --> A'             
     e( 10 - 10) =     16.35490  eV     1   --> A''            
     e( 11 - 11) =     19.42336  eV     1   --> A''            
     e( 12 - 12) =     19.48591  eV     1   --> A''            

 **************************************************************************

 **************************************************************************

                    xk=(  -1.00000,   0.11667,   0.11667  )

     Band symmetry, C_s (m)     point group:

     e(  1 -  1) =     -1.71634  eV     1   --> A'             
     e(  2 -  2) =     -1.53128  eV     1   --> A'             
     e(  3 -  3) =      2.66399  eV     1   --> A'             
     e(  4 -  4) =      3.39151  eV     1   --> A''            
     e(  5 -  5) =      6.87870  eV     1   --> A'             
     e(  6 -  6) =      7.79908  eV     1   --> A'             
     e(  7 -  7) =     15.28713  eV     1   --> A''            
     e(  8 -  8) =     15.63234  eV     1   --> A'             
     e(  9 -  9) =     15.93843  eV     1   --> A'             
     e( 10 - 10) =     16.16432  eV     1   --> A''            
     e( 11 - 11) =     19.60646  eV     1   --> A''            
     e( 12 - 12) =     19.67628  eV     1   --> A'             

 **************************************************************************

 **************************************************************************

                    xk=(  -1.00000,   0.13333,   0.13333  )

     Band symmetry, C_s (m)     point group:

     e(  1 -  1) =     -1.73773  eV     1   --> A'             
     e(  2 -  2) =     -1.49188  eV     1   --> A'             
     e(  3 -  3) =      2.52953  eV     1   --> A'             
     e(  4 -  4) =      3.42064  eV     1   --> A''            
     e(  5 -  5) =      6.91252  eV     1   --> A'             
     e(  6 -  6) =      8.05974  eV     1   --> A'             
     e(  7 -  7) =     15.08030  eV     1   --> A''            
     e(  8 -  8) =     15.48408  eV     1   --> A'             
     e(  9 -  9) =     15.70507  eV     1   --> A'             
     e( 10 - 10) =     15.97036  eV     1   --> A''            
     e( 11 - 11) =     19.79178  eV     1   --> A''            
     e( 12 - 12) =     19.81481  eV     1   --> A'             

 **************************************************************************

 **************************************************************************

                    xk=(  -1.00000,   0.15000,   0.15000  )

     Band symmetry, C_s (m)     point group:

     e(  1 -  1) =     -1.76421  eV     1   --> A'             
     e(  2 -  2) =     -1.44725  eV     1   --> A'             
     e(  3 -  3) =      2.39804  eV     1   --> A'             
     e(  4 -  4) =      3.45352  eV     1   --> A''            
     e(  5 -  5) =      6.95073  eV     1   --> A'             
     e(  6 -  6) =      8.33621  eV     1   --> A'             
     e(  7 -  7) =     14.86964  eV     1   --> A''            
     e(  8 -  8) =     15.32903  eV     1   --> A'             
     e(  9 -  9) =     15.47135  eV     1   --> A'             
     e( 10 - 10) =     15.77500  eV     1   --> A''            
     e( 11 - 11) =     19.95840  eV     1   --> A'             
     e( 12 - 12) =     19.97744  eV     1   --> A''            

 **************************************************************************

 **************************************************************************

                    xk=(  -1.00000,   0.16667,   0.16667  )

     Band symmetry, C_s (m)     point group:

     e(  1 -  1) =     -1.79651  eV     1   --> A'             
     e(  2 -  2) =     -1.39739  eV     1   --> A'             
     e(  3 -  3) =      2.27253  eV     1   --> A'             
     e(  4 -  4) =      3.49011  eV     1   --> A''            
     e(  5 -  5) =      6.99327  eV     1   --> A'             
     e(  6 -  6) =      8.62609  eV     1   --> A'             
     e(  7 -  7) =     14.65702  eV     1   --> A''            
     e(  8 -  8) =     15.16904  eV     1   --> A'             
     e(  9 -  9) =     15.23875  eV     1   --> A'             
     e( 10 - 10) =     15.57966  eV     1   --> A''            
     e( 11 - 11) =     20.10483  eV     1   --> A'             
     e( 12 - 12) =     20.16216  eV     1   --> A''            

 **************************************************************************

 **************************************************************************

                    xk=(  -1.00000,   0.18333,   0.18333  )

     Band symmetry, C_s (m)     point group:

     e(  1 -  1) =     -1.83535  eV     1   --> A'             
     e(  2 -  2) =     -1.34231  eV     1   --> A'             
     e(  3 -  3) =      2.15549  eV     1   --> A'             
     e(  4 -  4) =      3.53033  eV     1   --> A''            
     e(  5 -  5) =      7.04007  eV     1   --> A'             
     e(  6 -  6) =      8.92746  eV     1   --> A'             
     e(  7 -  7) =     14.44381  eV     1   --> A''            
     e(  8 -  8) =     15.00563  eV     1   --> A'             
     e(  9 -  9) =     15.00830  eV     1   --> A'             
     e( 10 - 10) =     15.38539  eV     1   --> A''            
     e( 11 - 11) =     20.25190  eV     1   --> A'             
     e( 12 - 12) =     20.34507  eV     1   --> A''            

 **************************************************************************

 **************************************************************************

                    xk=(  -1.00000,   0.20000,   0.20000  )

     Band symmetry, C_s (m)     point group:

     e(  1 -  1) =     -1.88140  eV     1   --> A'             
     e(  2 -  2) =     -1.28203  eV     1   --> A'             
     e(  3 -  3) =      2.04896  eV     1   --> A'             
     e(  4 -  4) =      3.57414  eV     1   --> A''            
     e(  5 -  5) =      7.09107  eV     1   --> A'             
     e(  6 -  6) =      9.23873  eV     1   --> A'             
     e(  7 -  7) =     14.23103  eV     1   --> A''            
     e(  8 -  8) =     14.78083  eV     1   --> A'             
     e(  9 -  9) =     14.84005  eV     1   --> A'             
     e( 10 - 10) =     15.19303  eV     1   --> A''            
     e( 11 - 11) =     20.39715  eV     1   --> A'             
     e( 12 - 12) =     20.52558  eV     1   --> A''            

 **************************************************************************

 **************************************************************************

                    xk=(  -1.00000,   0.21667,   0.21667  )

     Band symmetry, C_s (m)     point group:

     e(  1 -  1) =     -1.93522  eV     1   --> A'             
     e(  2 -  2) =     -1.21654  eV     1   --> A'             
     e(  3 -  3) =      1.95458  eV     1   --> A'             
     e(  4 -  4) =      3.62144  eV     1   --> A''            
     e(  5 -  5) =      7.14619  eV     1   --> A'             
     e(  6 -  6) =      9.55852  eV     1   --> A'             
     e(  7 -  7) =     14.01946  eV     1   --> A''            
     e(  8 -  8) =     14.55700  eV     1   --> A'             
     e(  9 -  9) =     14.67333  eV     1   --> A'             
     e( 10 - 10) =     15.00324  eV     1   --> A''            
     e( 11 - 11) =     20.53714  eV     1   --> A'             
     e( 12 - 12) =     20.70333  eV     1   --> A''            

 **************************************************************************

 **************************************************************************

                    xk=(  -1.00000,   0.23333,   0.23333  )

     Band symmetry, C_s (m)     point group:

     e(  1 -  1) =     -1.99722  eV     1   --> A'             
     e(  2 -  2) =     -1.14587  eV     1   --> A'             
     e(  3 -  3) =      1.87359  eV     1   --> A'             
     e(  4 -  4) =      3.67217  eV     1   --> A''            
     e(  5 -  5) =      7.20533  eV     1   --> A'             
     e(  6 -  6) =      9.88560  eV     1   --> A'             
     e(  7 -  7) =     13.80970  eV     1   --> A''            
     e(  8 -  8) =     14.33745  eV     1   --> A'             
     e(  9 -  9) =     14.50634  eV     1   --> A'             
     e( 10 - 10) =     14.81657  eV     1   --> A''            
     e( 11 - 11) =     20.66607  eV     1   --> A'             
     e( 12 - 12) =     20.87811  eV     1   --> A''            

 **************************************************************************

 **************************************************************************

                    xk=(  -1.00000,   0.25000,   0.25000  )

     Band symmetry, C_s (m)     point group:

     e(  1 -  1) =     -2.06759  eV     1   --> A'             
     e(  2 -  2) =     -1.07001  eV     1   --> A'             
     e(  3 -  3) =      1.80689  eV     1   --> A'             
     e(  4 -  4) =      3.72622  eV     1   --> A''            
     e(  5 -  5) =      7.26839  eV     1   --> A'             
     e(  6 -  6) =     10.21873  eV     1   --> A'             
     e(  7 -  7) =     13.60225  eV     1   --> A''            
     e(  8 -  8) =     14.12288  eV     1   --> A'             
     e(  9 -  9) =     14.33980  eV     1   --> A'             
     e( 10 - 10) =     14.63350  eV     1   --> A''            
     e( 11 - 11) =     20.77234  eV     1   --> A'             
     e( 12 - 12) =     21.04985  eV     1   --> A''            

 **************************************************************************

 **************************************************************************

                    xk=(  -0.75000,   0.00000,   0.75000  )

     point group C_1 (1)    
     there are  1 classes
     the character table:

       E    
A      1.00

     the symmetry operations in each class and the name of the first element:

     E        1
                                                                 

     Band symmetry, C_1 (1)     point group:

     e(  1 -  1) =     -2.06773  eV     1   --> A              
     e(  2 -  2) =     -1.06984  eV     1   --> A              
     e(  3 -  3) =      1.80696  eV     1   --> A              
     e(  4 -  4) =      3.72612  eV     1   --> A              
     e(  5 -  5) =      7.26825  eV     1   --> A              
     e(  6 -  6) =     10.21886  eV     1   --> A              
     e(  7 -  7) =     13.60239  eV     1   --> A              
     e(  8 -  8) =     14.12277  eV     1   --> A              
     e(  9 -  9) =     14.33986  eV     1   --> A              
     e( 10 - 10) =     14.63341  eV     1   --> A              
     e( 11 - 11) =     20.77241  eV     1   --> A              
     e( 12 - 12) =     21.04969  eV     1   --> A              

 **************************************************************************

 **************************************************************************

                    xk=(  -0.70000,   0.00000,   0.70000  )

     Band symmetry, C_1 (1)     point group:

     e(  1 -  1) =     -2.32772  eV     1   --> A              
     e(  2 -  2) =     -0.81136  eV     1   --> A              
     e(  3 -  3) =      1.69608  eV     1   --> A              
     e(  4 -  4) =      3.90712  eV     1   --> A              
     e(  5 -  5) =      7.47967  eV     1   --> A              
     e(  6 -  6) =     11.23754  eV     1   --> A              
     e(  7 -  7) =     12.99731  eV     1   --> A              
     e(  8 -  8) =     13.52094  eV     1   --> A              
     e(  9 -  9) =     13.84906  eV     1   --> A              
     e( 10 - 10) =     14.10984  eV     1   --> A              
     e( 11 - 11) =     20.71473  eV     1   --> A              
     e( 12 - 12) =     21.33292  eV     1   --> A              

 **************************************************************************

 **************************************************************************

                    xk=(  -0.65000,   0.00000,   0.65000  )

     Band symmetry, C_1 (1)     point group:

     e(  1 -  1) =     -2.64979  eV     1   --> A              
     e(  2 -  2) =     -0.50683  eV     1   --> A              
     e(  3 -  3) =      1.71461  eV     1   --> A              
     e(  4 -  4) =      4.11362  eV     1   --> A              
     e(  5 -  5) =      7.72093  eV     1   --> A              
     e(  6 -  6) =     12.14816  eV     1   --> A              
     e(  7 -  7) =     12.42325  eV     1   --> A              
     e(  8 -  8) =     13.10847  eV     1   --> A              
     e(  9 -  9) =     13.38178  eV     1   --> A              
     e( 10 - 10) =     13.63195  eV     1   --> A              
     e( 11 - 11) =     20.21243  eV     1   --> A              
     e( 12 - 12) =     20.75376  eV     1   --> A              

 **************************************************************************

 **************************************************************************

                    xk=(  -0.60000,   0.00000,   0.60000  )

     Band symmetry, C_1 (1)     point group:

     e(  1 -  1) =     -3.01171  eV     1   --> A              
     e(  2 -  2) =     -0.15678  eV     1   --> A              
     e(  3 -  3) =      1.84558  eV     1   --> A              
     e(  4 -  4) =      4.34109  eV     1   --> A              
     e(  5 -  5) =      7.98566  eV     1   --> A              
     e(  6 -  6) =     11.88454  eV     1   --> A              
     e(  7 -  7) =     12.14018  eV     1   --> A              
     e(  8 -  8) =     12.94953  eV     1   --> A              
     e(  9 -  9) =     13.20809  eV     1   --> A              
     e( 10 - 10) =     13.67862  eV     1   --> A              
     e( 11 - 11) =     19.66690  eV     1   --> A              
     e( 12 - 12) =     20.22236  eV     1   --> A              

 **************************************************************************

 **************************************************************************

                    xk=(  -0.55000,   0.00000,   0.55000  )

     Band symmetry, C_1 (1)     point group:

     e(  1 -  1) =     -3.39049  eV     1   --> A              
     e(  2 -  2) =      0.23812  eV     1   --> A              
     e(  3 -  3) =      2.06847  eV     1   --> A              
     e(  4 -  4) =      4.58366  eV     1   --> A              
     e(  5 -  5) =      8.26426  eV     1   --> A              
     e(  6 -  6) =     11.38394  eV     1   --> A              
     e(  7 -  7) =     11.69096  eV     1   --> A              
     e(  8 -  8) =     12.56370  eV     1   --> A              
     e(  9 -  9) =     12.84644  eV     1   --> A              
     e( 10 - 10) =     14.72246  eV     1   --> A              
     e( 11 - 11) =     19.14646  eV     1   --> A              
     e( 12 - 12) =     19.77096  eV     1   --> A              

 **************************************************************************

 **************************************************************************

                    xk=(  -0.50000,   0.00000,   0.50000  )

     Band symmetry, C_1 (1)     point group:

     e(  1 -  1) =     -3.76756  eV     1   --> A              
     e(  2 -  2) =      0.67704  eV     1   --> A              
     e(  3 -  3) =      2.36532  eV     1   --> A              
     e(  4 -  4) =      4.83398  eV     1   --> A              
     e(  5 -  5) =      8.54221  eV     1   --> A              
     e(  6 -  6) =     10.92338  eV     1   --> A              
     e(  7 -  7) =     11.23413  eV     1   --> A              
     e(  8 -  8) =     12.23743  eV     1   --> A              
     e(  9 -  9) =     12.55555  eV     1   --> A              
     e( 10 - 10) =     15.73188  eV     1   --> A              
     e( 11 - 11) =     18.65139  eV     1   --> A              
     e( 12 - 12) =     19.32520  eV     1   --> A              

 **************************************************************************

 **************************************************************************

                    xk=(  -0.45000,   0.00000,   0.45000  )

     Band symmetry, C_1 (1)     point group:

     e(  1 -  1) =     -4.12954  eV     1   --> A              
     e(  2 -  2) =      1.15888  eV     1   --> A              
     e(  3 -  3) =      2.72179  eV     1   --> A              
     e(  4 -  4) =      5.08321  eV     1   --> A              
     e(  5 -  5) =      8.79837  eV     1   --> A              
     e(  6 -  6) =     10.50418  eV     1   --> A              
     e(  7 -  7) =     10.80729  eV     1   --> A              
     e(  8 -  8) =     11.98660  eV     1   --> A              
     e(  9 -  9) =     12.34449  eV     1   --> A              
     e( 10 - 10) =     16.48676  eV     1   --> A              
     e( 11 - 11) =     17.98480  eV     1   --> A              
     e( 12 - 12) =     18.38135  eV     1   --> A              

 **************************************************************************

 **************************************************************************

                    xk=(  -0.40000,   0.00000,   0.40000  )

     Band symmetry, C_1 (1)     point group:

     e(  1 -  1) =     -4.46722  eV     1   --> A              
     e(  2 -  2) =      1.68219  eV     1   --> A              
     e(  3 -  3) =      3.12614  eV     1   --> A              
     e(  4 -  4) =      5.32142  eV     1   --> A              
     e(  5 -  5) =      9.00546  eV     1   --> A              
     e(  6 -  6) =     10.12733  eV     1   --> A              
     e(  7 -  7) =     10.41719  eV     1   --> A              
     e(  8 -  8) =     11.82697  eV     1   --> A              
     e(  9 -  9) =     12.22245  eV     1   --> A              
     e( 10 - 10) =     16.74679  eV     1   --> A              
     e( 11 - 11) =     16.91183  eV     1   --> A              
     e( 12 - 12) =     17.94384  eV     1   --> A              

 **************************************************************************

 **************************************************************************

                    xk=(  -0.35000,   0.00000,   0.35000  )

     Band symmetry, C_1 (1)     point group:

     e(  1 -  1) =     -4.77425  eV     1   --> A              
     e(  2 -  2) =      2.24493  eV     1   --> A              
     e(  3 -  3) =      3.56766  eV     1   --> A              
     e(  4 -  4) =      5.53860  eV     1   --> A              
     e(  5 -  5) =      9.13811  eV     1   --> A              
     e(  6 -  6) =      9.79356  eV     1   --> A              
     e(  7 -  7) =     10.06534  eV     1   --> A              
     e(  8 -  8) =     11.76040  eV     1   --> A              
     e(  9 -  9) =     12.19754  eV     1   --> A              
     e( 10 - 10) =     15.85057  eV     1   --> A              
     e( 11 - 11) =     16.58378  eV     1   --> A              
     e( 12 - 12) =     17.62443  eV     1   --> A              

 **************************************************************************

 **************************************************************************

                    xk=(  -0.30000,   0.00000,   0.30000  )

     Band symmetry, C_1 (1)     point group:

     e(  1 -  1) =     -5.04627  eV     1   --> A              
     e(  2 -  2) =      2.84412  eV     1   --> A              
     e(  3 -  3) =      4.03514  eV     1   --> A              
     e(  4 -  4) =      5.72617  eV     1   --> A              
     e(  5 -  5) =      9.18833  eV     1   --> A              
     e(  6 -  6) =      9.50343  eV     1   --> A              
     e(  7 -  7) =      9.75146  eV     1   --> A              
     e(  8 -  8) =     11.74439  eV     1   --> A              
     e(  9 -  9) =     12.27483  eV     1   --> A              
     e( 10 - 10) =     14.89824  eV     1   --> A              
     e( 11 - 11) =     16.20767  eV     1   --> A              
     e( 12 - 12) =     17.37790  eV     1   --> A              

 **************************************************************************

 **************************************************************************

                    xk=(  -0.25000,   0.00000,   0.25000  )

     Band symmetry, C_1 (1)     point group:

     e(  1 -  1) =     -5.28024  eV     1   --> A              
     e(  2 -  2) =      3.47502  eV     1   --> A              
     e(  3 -  3) =      4.51513  eV     1   --> A              
     e(  4 -  4) =      5.87876  eV     1   --> A              
     e(  5 -  5) =      9.17182  eV     1   --> A              
     e(  6 -  6) =      9.25734  eV     1   --> A              
     e(  7 -  7) =      9.47437  eV     1   --> A              
     e(  8 -  8) =     11.65499  eV     1   --> A              
     e(  9 -  9) =     12.45365  eV     1   --> A              
     e( 10 - 10) =     14.15964  eV     1   --> A              
     e( 11 - 11) =     15.72401  eV     1   --> A              
     e( 12 - 12) =     17.20598  eV     1   --> A              

 **************************************************************************

 **************************************************************************

                    xk=(  -0.20000,   0.00000,   0.20000  )

     Band symmetry, C_1 (1)     point group:

     e(  1 -  1) =     -5.47399  eV     1   --> A              
     e(  2 -  2) =      4.12943  eV     1   --> A              
     e(  3 -  3) =      4.98985  eV     1   --> A              
     e(  4 -  4) =      5.99513  eV     1   --> A              
     e(  5 -  5) =      9.05563  eV     1   --> A              
     e(  6 -  6) =      9.11453  eV     1   --> A              
     e(  7 -  7) =      9.23249  eV     1   --> A              
     e(  8 -  8) =     11.31855  eV     1   --> A              
     e(  9 -  9) =     12.72463  eV     1   --> A              
     e( 10 - 10) =     13.77187  eV     1   --> A              
     e( 11 - 11) =     15.19548  eV     1   --> A              
     e( 12 - 12) =     17.11431  eV     1   --> A              

 **************************************************************************

 **************************************************************************

                    xk=(  -0.15000,   0.00000,   0.15000  )

     Band symmetry, C_1 (1)     point group:

     e(  1 -  1) =     -5.62603  eV     1   --> A              
     e(  2 -  2) =      4.79150  eV     1   --> A              
     e(  3 -  3) =      5.43421  eV     1   --> A              
     e(  4 -  4) =      6.07781  eV     1   --> A              
     e(  5 -  5) =      8.89852  eV     1   --> A              
     e(  6 -  6) =      9.02529  eV     1   --> A              
     e(  7 -  7) =      9.03562  eV     1   --> A              
     e(  8 -  8) =     10.73692  eV     1   --> A              
     e(  9 -  9) =     13.06566  eV     1   --> A              
     e( 10 - 10) =     13.70491  eV     1   --> A              
     e( 11 - 11) =     14.68585  eV     1   --> A              
     e( 12 - 12) =     17.10428  eV     1   --> A              

 **************************************************************************

 **************************************************************************

                    xk=(  -0.10000,   0.00000,   0.10000  )

     Band symmetry, C_1 (1)     point group:

     e(  1 -  1) =     -5.73530  eV     1   --> A              
     e(  2 -  2) =      5.42633  eV     1   --> A              
     e(  3 -  3) =      5.81223  eV     1   --> A              
     e(  4 -  4) =      6.13156  eV     1   --> A              
     e(  5 -  5) =      8.78618  eV     1   --> A              
     e(  6 -  6) =      8.85650  eV     1   --> A              
     e(  7 -  7) =      8.93555  eV     1   --> A              
     e(  8 -  8) =     10.10528  eV     1   --> A              
     e(  9 -  9) =     13.43349  eV     1   --> A              
     e( 10 - 10) =     13.77249  eV     1   --> A              
     e( 11 - 11) =     14.26024  eV     1   --> A              
     e( 12 - 12) =     17.16124  eV     1   --> A              

 **************************************************************************

 **************************************************************************

                    xk=(  -0.05000,   0.00000,   0.05000  )

     Band symmetry, C_1 (1)     point group:

     e(  1 -  1) =     -5.80112  eV     1   --> A              
     e(  2 -  2) =      5.94824  eV     1   --> A              
     e(  3 -  3) =      6.07514  eV     1   --> A              
     e(  4 -  4) =      6.16137  eV     1   --> A              
     e(  5 -  5) =      8.71874  eV     1   --> A              
     e(  6 -  6) =      8.73937  eV     1   --> A              
     e(  7 -  7) =      8.79492  eV     1   --> A              
     e(  8 -  8) =      9.63737  eV     1   --> A              
     e(  9 -  9) =     13.74619  eV     1   --> A              
     e( 10 - 10) =     13.84722  eV     1   --> A              
     e( 11 - 11) =     13.97661  eV     1   --> A              
     e( 12 - 12) =     17.24143  eV     1   --> A              

 **************************************************************************

 **************************************************************************

                    xk=(   0.00000,   0.00000,   0.00000  )

     point group C_3v (3m)  
     there are  3 classes
     the character table:

       E     2C3   3s_v 
A_1    1.00  1.00  1.00
A_2    1.00  1.00 -1.00
E      2.00 -1.00  0.00

     the symmetry operations in each class and the name of the first element:

     E        1
                                                                 
     2C3      2    3
                                                                 
     3s_v     4    5    6
                                                                 

     Band symmetry, C_3v (3m)   point group:

     e(  1 -  1) =     -5.82311  eV     1   --> A_1  L_1       
     e(  2 -  2) =      6.17074  eV     1   --> A_1  L_1       
     e(  3 -  4) =      6.17113  eV     2   --> E    L_3       
     e(  5 -  6) =      8.69609  eV     2   --> E    L_3       
     e(  7 -  7) =      8.69633  eV     1   --> A_1  L_1       
     e(  8 -  8) =      9.48060  eV     1   --> A_1  L_1       
     e(  9 - 10) =     13.87654  eV     2   --> E    L_3       
     e( 11 - 11) =     13.87684  eV     1   --> A_1  L_1       
     e( 12 - 12) =     17.27982  eV     1   -->   ?

 **************************************************************************

     BANDS        :      0.92s CPU      0.96s WALL


   This run was terminated on:  18:56:51  19Dec2024            

=------------------------------------------------------------------------------=
   JOB DONE.
=------------------------------------------------------------------------------=
