
     Program BANDS v.7.3.1 starts on 19Dec2024 at 20:32:29 

     This program is part of the open-source Quantum ESPRESSO suite
     for quantum simulation of materials; please cite
         "P. Giannozzi et al., J. Phys.:Condens. Matter 21 395502 (2009);
         "P. Giannozzi et al., J. Phys.:Condens. Matter 29 465901 (2017);
         "P. Giannozzi et al., J. Chem. Phys. 152 154105 (2020);
          URL http://www.quantum-espresso.org", 
     in publications or presentations arising from this work. More details at
     http://www.quantum-espresso.org/quote

     Serial version
     110524 MiB available memory on the printing compute node when the environment starts


     Reading xml data from directory:

     ./silicon.save/

     IMPORTANT: XC functional enforced from input :
     Exchange-correlation= PBESOL
                           (   1   4  10   8   0   0   0)
     Any further DFT definition will be discarded
     Please, verify this is what you really want


     G-vector sticks info
     --------------------
     sticks:   dense  smooth     PW     G-vecs:    dense   smooth      PW
     Sum         583     583    169                 9257     9257    1471

     Using Slab Decomposition


     Check: negative core charge=   -0.000003
     Reading collected, re-writing distributed wavefunctions
     high-symmetry point: -0.5000 0.5000 0.5000   x coordinate   0.0000
     high-symmetry point:  0.0000 0.0000 0.0000   x coordinate   0.8660
     high-symmetry point: -1.0000 0.0000 0.0000   x coordinate   1.8660
     high-symmetry point: -1.0000 0.2500 0.2500   x coordinate   2.2196
     high-symmetry point: -0.7500 0.0000 0.7500   x coordinate   2.2196
     high-symmetry point:  0.0000 0.0000 0.0000   x coordinate   3.2802

     Plottable bands (eV) written to file Si_bands.dat.gnu
     Bands written to file Si_bands.dat

 **************************************************************************

                    xk=(  -0.50000,   0.50000,   0.50000  )

     point group C_s (m)    
     there are  2 classes
     the character table:

       E     s    
A'     1.00  1.00
A''    1.00 -1.00

     the symmetry operations in each class and the name of the first element:

     E        1
                                                                 
     s        2
                                                                 

     Band symmetry, C_s (m)     point group:

     e(  1 -  1) =     -3.47138  eV     1   --> A'             
     e(  2 -  2) =     -0.84639  eV     1   --> A'             
     e(  3 -  3) =      4.96678  eV     1   --> A'             
     e(  4 -  4) =      4.96706  eV     1   --> A''            
     e(  5 -  5) =      7.63712  eV     1   --> A'             
     e(  6 -  6) =      9.45393  eV     1   --> A''            
     e(  7 -  7) =      9.45427  eV     1   --> A'             
     e(  8 -  8) =     13.69261  eV     1   --> A'             
     e(  9 - 10) =     16.69755  eV     2   --> A'             
     e(  9 - 10) =     16.69755  eV     2   --> A''            
     e( 11 - 11) =     17.38141  eV     1   --> A'             
     e( 12 - 12) =     17.45481  eV     1   --> A'             

 **************************************************************************

 **************************************************************************

                    xk=(  -0.48889,   0.48889,   0.48889  )

     Band symmetry, C_s (m)     point group:

     e(  1 -  1) =     -3.47864  eV     1   --> A'             
     e(  2 -  2) =     -0.83606  eV     1   --> A'             
     e(  3 -  3) =      4.96766  eV     1   --> A'             
     e(  4 -  4) =      4.96794  eV     1   --> A''            
     e(  5 -  5) =      7.63815  eV     1   --> A'             
     e(  6 -  6) =      9.45500  eV     1   --> A''            
     e(  7 -  7) =      9.45534  eV     1   --> A'             
     e(  8 -  8) =     13.69429  eV     1   --> A'             
     e(  9 - 10) =     16.63304  eV     2   --> A'             
     e(  9 - 10) =     16.63304  eV     2   --> A''            
     e( 11 - 11) =     17.35427  eV     1   --> A'             
     e( 12 - 12) =     17.52305  eV     1   --> A'             

 **************************************************************************

 **************************************************************************

                    xk=(  -0.47778,   0.47778,   0.47778  )

     Band symmetry, C_s (m)     point group:

     e(  1 -  1) =     -3.50009  eV     1   --> A'             
     e(  2 -  2) =     -0.80543  eV     1   --> A'             
     e(  3 -  3) =      4.97031  eV     1   --> A'             
     e(  4 -  4) =      4.97059  eV     1   --> A''            
     e(  5 -  5) =      7.64122  eV     1   --> A'             
     e(  6 -  6) =      9.45820  eV     1   --> A''            
     e(  7 -  7) =      9.45855  eV     1   --> A'             
     e(  8 -  8) =     13.69932  eV     1   --> A'             
     e(  9 - 10) =     16.48209  eV     2   --> A'             
     e(  9 - 10) =     16.48209  eV     2   --> A''            
     e( 11 - 11) =     17.27755  eV     1   --> A'             
     e( 12 - 12) =     17.68515  eV     1   -->   ?

 **************************************************************************

 **************************************************************************

                    xk=(  -0.46667,   0.46667,   0.46667  )

     Band symmetry, C_s (m)     point group:

     e(  1 -  1) =     -3.53473  eV     1   --> A'             
     e(  2 -  2) =     -0.75547  eV     1   --> A'             
     e(  3 -  3) =      4.97473  eV     1   --> A'             
     e(  4 -  4) =      4.97501  eV     1   --> A''            
     e(  5 -  5) =      7.64633  eV     1   --> A'             
     e(  6 -  6) =      9.46349  eV     1   --> A''            
     e(  7 -  7) =      9.46384  eV     1   --> A'             
     e(  8 -  8) =     13.70763  eV     1   --> A'             
     e(  9 - 10) =     16.29659  eV     2   --> A'             
     e(  9 - 10) =     16.29659  eV     2   --> A''            
     e( 11 - 11) =     17.16212  eV     1   --> A'             
     e( 12 - 12) =     17.88920  eV     1   -->   ?

 **************************************************************************

 **************************************************************************

                    xk=(  -0.45556,   0.45556,   0.45556  )

     Band symmetry, C_s (m)     point group:

     e(  1 -  1) =     -3.58112  eV     1   --> A'             
     e(  2 -  2) =     -0.68765  eV     1   --> A'             
     e(  3 -  3) =      4.98092  eV     1   --> A'             
     e(  4 -  4) =      4.98120  eV     1   --> A''            
     e(  5 -  5) =      7.65349  eV     1   --> A'             
     e(  6 -  6) =      9.47080  eV     1   --> A''            
     e(  7 -  7) =      9.47114  eV     1   --> A'             
     e(  8 -  8) =     13.71910  eV     1   --> A'             
     e(  9 - 10) =     16.09901  eV     2   --> A'             
     e(  9 - 10) =     16.09901  eV     2   --> A''            
     e( 11 - 11) =     17.01942  eV     1   --> A'             
     e( 12 - 12) =     18.11268  eV     1   -->   ?

 **************************************************************************

 **************************************************************************

                    xk=(  -0.44444,   0.44444,   0.44444  )

     Band symmetry, C_s (m)     point group:

     e(  1 -  1) =     -3.63755  eV     1   --> A'             
     e(  2 -  2) =     -0.60368  eV     1   --> A'             
     e(  3 -  3) =      4.98887  eV     1   --> A'             
     e(  4 -  4) =      4.98915  eV     1   --> A''            
     e(  5 -  5) =      7.66269  eV     1   --> A'             
     e(  6 -  6) =      9.48002  eV     1   --> A''            
     e(  7 -  7) =      9.48036  eV     1   --> A'             
     e(  8 -  8) =     13.73357  eV     1   --> A'             
     e(  9 - 10) =     15.89810  eV     2   --> A'             
     e(  9 - 10) =     15.89810  eV     2   --> A''            
     e( 11 - 11) =     16.85858  eV     1   --> A'             
     e( 12 - 12) =     18.34676  eV     1   -->   ?

 **************************************************************************

 **************************************************************************

                    xk=(  -0.43333,   0.43333,   0.43333  )

     Band symmetry, C_s (m)     point group:

     e(  1 -  1) =     -3.70227  eV     1   --> A'             
     e(  2 -  2) =     -0.50532  eV     1   --> A'             
     e(  3 -  3) =      4.99858  eV     1   --> A'             
     e(  4 -  4) =      4.99886  eV     1   --> A''            
     e(  5 -  5) =      7.67391  eV     1   --> A'             
     e(  6 -  6) =      9.49102  eV     1   --> A''            
     e(  7 -  7) =      9.49136  eV     1   --> A'             
     e(  8 -  8) =     13.75078  eV     1   --> A'             
     e(  9 -  9) =     15.69771  eV     1   --> A'             
     e( 10 - 10) =     15.69781  eV     1   --> A''            
     e( 11 - 11) =     16.68604  eV     1   --> A'             
     e( 12 - 12) =     18.58747  eV     1   -->   ?

 **************************************************************************

 **************************************************************************

                    xk=(  -0.42222,   0.42222,   0.42222  )

     Band symmetry, C_s (m)     point group:

     e(  1 -  1) =     -3.77360  eV     1   --> A'             
     e(  2 -  2) =     -0.39429  eV     1   --> A'             
     e(  3 -  3) =      5.01006  eV     1   --> A'             
     e(  4 -  4) =      5.01034  eV     1   --> A''            
     e(  5 -  5) =      7.68716  eV     1   --> A'             
     e(  6 -  6) =      9.50363  eV     1   --> A''            
     e(  7 -  7) =      9.50398  eV     1   --> A'             
     e(  8 -  8) =     13.77040  eV     1   --> A'             
     e(  9 -  9) =     15.49985  eV     1   --> A'             
     e( 10 - 10) =     15.49996  eV     1   --> A''            
     e( 11 - 11) =     16.50631  eV     1   --> A'             
     e( 12 - 12) =     18.83258  eV     1   -->   ?

 **************************************************************************

 **************************************************************************

                    xk=(  -0.41111,   0.41111,   0.41111  )

     Band symmetry, C_s (m)     point group:

     e(  1 -  1) =     -3.85001  eV     1   --> A'             
     e(  2 -  2) =     -0.27211  eV     1   --> A'             
     e(  3 -  3) =      5.02330  eV     1   --> A'             
     e(  4 -  4) =      5.02357  eV     1   --> A''            
     e(  5 -  5) =      7.70241  eV     1   --> A'             
     e(  6 -  6) =      9.51766  eV     1   --> A''            
     e(  7 -  7) =      9.51800  eV     1   --> A'             
     e(  8 -  8) =     13.79193  eV     1   --> A'             
     e(  9 -  9) =     15.30574  eV     1   --> A'             
     e( 10 - 10) =     15.30586  eV     1   --> A''            
     e( 11 - 11) =     16.32261  eV     1   --> A'             
     e( 12 - 12) =     19.08068  eV     1   -->   ?

 **************************************************************************

 **************************************************************************

                    xk=(  -0.40000,   0.40000,   0.40000  )

     Band symmetry, C_s (m)     point group:

     e(  1 -  1) =     -3.93018  eV     1   --> A'             
     e(  2 -  2) =     -0.14014  eV     1   --> A'             
     e(  3 -  3) =      5.03829  eV     1   --> A'             
     e(  4 -  4) =      5.03856  eV     1   --> A''            
     e(  5 -  5) =      7.71967  eV     1   --> A'             
     e(  6 -  6) =      9.53285  eV     1   --> A''            
     e(  7 -  7) =      9.53319  eV     1   --> A'             
     e(  8 -  8) =     13.81473  eV     1   --> A'             
     e(  9 -  9) =     15.11625  eV     1   --> A'             
     e( 10 - 10) =     15.11637  eV     1   --> A''            
     e( 11 - 11) =     16.13742  eV     1   --> A'             
     e( 12 - 12) =     19.33019  eV     1   -->   ?

 **************************************************************************

 **************************************************************************

                    xk=(  -0.38889,   0.38889,   0.38889  )

     Band symmetry, C_s (m)     point group:

     e(  1 -  1) =     -4.01297  eV     1   --> A'             
     e(  2 -  2) =      0.00047  eV     1   --> A'             
     e(  3 -  3) =      5.05503  eV     1   --> A'             
     e(  4 -  4) =      5.05530  eV     1   --> A''            
     e(  5 -  5) =      7.73890  eV     1   --> A'             
     e(  6 -  6) =      9.54892  eV     1   --> A''            
     e(  7 -  7) =      9.54926  eV     1   --> A'             
     e(  8 -  8) =     13.83785  eV     1   --> A'             
     e(  9 -  9) =     14.93202  eV     1   --> A'             
     e( 10 - 10) =     14.93215  eV     1   --> A''            
     e( 11 - 11) =     15.95290  eV     1   --> A'             
     e( 12 - 12) =     19.58007  eV     1   -->   ?

 **************************************************************************

 **************************************************************************

                    xk=(  -0.37778,   0.37778,   0.37778  )

     Band symmetry, C_s (m)     point group:

     e(  1 -  1) =     -4.09745  eV     1   --> A'             
     e(  2 -  2) =      0.14875  eV     1   --> A'             
     e(  3 -  3) =      5.07351  eV     1   --> A'             
     e(  4 -  4) =      5.07379  eV     1   --> A''            
     e(  5 -  5) =      7.76010  eV     1   --> A'             
     e(  6 -  6) =      9.56555  eV     1   --> A''            
     e(  7 -  7) =      9.56589  eV     1   --> A'             
     e(  8 -  8) =     13.85995  eV     1   --> A'             
     e(  9 -  9) =     14.75368  eV     1   --> A'             
     e( 10 - 10) =     14.75381  eV     1   --> A''            
     e( 11 - 11) =     15.77123  eV     1   --> A'             
     e( 12 - 12) =     19.82839  eV     1   -->   ?

 **************************************************************************

 **************************************************************************

                    xk=(  -0.36667,   0.36667,   0.36667  )

     Band symmetry, C_s (m)     point group:

     e(  1 -  1) =     -4.18282  eV     1   --> A'             
     e(  2 -  2) =      0.30386  eV     1   --> A'             
     e(  3 -  3) =      5.09372  eV     1   --> A'             
     e(  4 -  4) =      5.09400  eV     1   --> A''            
     e(  5 -  5) =      7.78324  eV     1   --> A'             
     e(  6 -  6) =      9.58235  eV     1   --> A''            
     e(  7 -  7) =      9.58269  eV     1   --> A'             
     e(  8 -  8) =     13.87907  eV     1   --> A'             
     e(  9 -  9) =     14.58178  eV     1   --> A'             
     e( 10 - 10) =     14.58190  eV     1   --> A''            
     e( 11 - 11) =     15.59489  eV     1   --> A'             
     e( 12 - 12) =     20.06611  eV     1   --> A'             

 **************************************************************************

 **************************************************************************

                    xk=(  -0.35556,   0.35556,   0.35556  )

     Band symmetry, C_s (m)     point group:

     e(  1 -  1) =     -4.26844  eV     1   --> A'             
     e(  2 -  2) =      0.46511  eV     1   --> A'             
     e(  3 -  3) =      5.11566  eV     1   --> A'             
     e(  4 -  4) =      5.11594  eV     1   --> A''            
     e(  5 -  5) =      7.80830  eV     1   --> A'             
     e(  6 -  6) =      9.59891  eV     1   --> A''            
     e(  7 -  7) =      9.59925  eV     1   --> A'             
     e(  8 -  8) =     13.89235  eV     1   --> A'             
     e(  9 -  9) =     14.41687  eV     1   --> A'             
     e( 10 - 10) =     14.41700  eV     1   --> A''            
     e( 11 - 11) =     15.42707  eV     1   --> A'             
     e( 12 - 12) =     19.96203  eV     1   --> A'             

 **************************************************************************

 **************************************************************************

                    xk=(  -0.34444,   0.34444,   0.34444  )

     Band symmetry, C_s (m)     point group:

     e(  1 -  1) =     -4.35375  eV     1   --> A'             
     e(  2 -  2) =      0.63194  eV     1   --> A'             
     e(  3 -  3) =      5.13931  eV     1   --> A'             
     e(  4 -  4) =      5.13959  eV     1   --> A''            
     e(  5 -  5) =      7.83523  eV     1   --> A'             
     e(  6 -  6) =      9.61474  eV     1   --> A''            
     e(  7 -  7) =      9.61508  eV     1   --> A'             
     e(  8 -  8) =     13.89567  eV     1   --> A'             
     e(  9 -  9) =     14.25954  eV     1   --> A'             
     e( 10 - 10) =     14.25967  eV     1   --> A''            
     e( 11 - 11) =     15.27207  eV     1   --> A'             
     e( 12 - 12) =     19.80983  eV     1   --> A'             

 **************************************************************************

 **************************************************************************

                    xk=(  -0.33333,   0.33333,   0.33333  )

     Band symmetry, C_s (m)     point group:

     e(  1 -  1) =     -4.43832  eV     1   --> A'             
     e(  2 -  2) =      0.80382  eV     1   --> A'             
     e(  3 -  3) =      5.16465  eV     1   --> A'             
     e(  4 -  4) =      5.16492  eV     1   --> A''            
     e(  5 -  5) =      7.86402  eV     1   --> A'             
     e(  6 -  6) =      9.62932  eV     1   --> A''            
     e(  7 -  7) =      9.62965  eV     1   --> A'             
     e(  8 -  8) =     13.88341  eV     1   --> A'             
     e(  9 -  9) =     14.11038  eV     1   --> A'             
     e( 10 - 10) =     14.11051  eV     1   --> A''            
     e( 11 - 11) =     15.13553  eV     1   --> A'             
     e( 12 - 12) =     19.62078  eV     1   --> A'             

 **************************************************************************

 **************************************************************************

                    xk=(  -0.32222,   0.32222,   0.32222  )

     Band symmetry, C_s (m)     point group:

     e(  1 -  1) =     -4.52176  eV     1   --> A'             
     e(  2 -  2) =      0.98035  eV     1   --> A'             
     e(  3 -  3) =      5.19165  eV     1   --> A'             
     e(  4 -  4) =      5.19193  eV     1   --> A''            
     e(  5 -  5) =      7.89460  eV     1   --> A'             
     e(  6 -  6) =      9.64207  eV     1   --> A''            
     e(  7 -  7) =      9.64240  eV     1   --> A'             
     e(  8 -  8) =     13.84890  eV     1   --> A'             
     e(  9 -  9) =     13.97002  eV     1   --> A'             
     e( 10 - 10) =     13.97015  eV     1   --> A''            
     e( 11 - 11) =     15.02406  eV     1   --> A'             
     e( 12 - 12) =     19.40592  eV     1   --> A'             

 **************************************************************************

 **************************************************************************

                    xk=(  -0.31111,   0.31111,   0.31111  )

     Band symmetry, C_s (m)     point group:

     e(  1 -  1) =     -4.60377  eV     1   --> A'             
     e(  2 -  2) =      1.16113  eV     1   --> A'             
     e(  3 -  3) =      5.22030  eV     1   --> A'             
     e(  4 -  4) =      5.22058  eV     1   --> A''            
     e(  5 -  5) =      7.92694  eV     1   --> A'             
     e(  6 -  6) =      9.65238  eV     1   --> A''            
     e(  7 -  7) =      9.65271  eV     1   --> A'             
     e(  8 -  8) =     13.78629  eV     1   --> A'             
     e(  9 -  9) =     13.83910  eV     1   --> A'             
     e( 10 - 10) =     13.83923  eV     1   --> A''            
     e( 11 - 11) =     14.94334  eV     1   --> A'             
     e( 12 - 12) =     19.17426  eV     1   --> A'             

 **************************************************************************

 **************************************************************************

                    xk=(  -0.30000,   0.30000,   0.30000  )

     Band symmetry, C_s (m)     point group:

     e(  1 -  1) =     -4.68409  eV     1   --> A'             
     e(  2 -  2) =      1.34585  eV     1   --> A'             
     e(  3 -  3) =      5.25056  eV     1   --> A'             
     e(  4 -  4) =      5.25084  eV     1   --> A''            
     e(  5 -  5) =      7.96098  eV     1   --> A'             
     e(  6 -  6) =      9.65960  eV     1   --> A''            
     e(  7 -  7) =      9.65993  eV     1   --> A'             
     e(  8 -  8) =     13.69328  eV     1   --> A'             
     e(  9 -  9) =     13.71830  eV     1   --> A'             
     e( 10 - 10) =     13.71842  eV     1   --> A''            
     e( 11 - 11) =     14.89534  eV     1   --> A'             
     e( 12 - 12) =     18.93266  eV     1   --> A'             

 **************************************************************************

 **************************************************************************

                    xk=(  -0.28889,   0.28889,   0.28889  )

     Band symmetry, C_s (m)     point group:

     e(  1 -  1) =     -4.76249  eV     1   --> A'             
     e(  2 -  2) =      1.53421  eV     1   --> A'             
     e(  3 -  3) =      5.28239  eV     1   --> A'             
     e(  4 -  4) =      5.28267  eV     1   --> A''            
     e(  5 -  5) =      7.99665  eV     1   --> A'             
     e(  6 -  6) =      9.66309  eV     1   --> A''            
     e(  7 -  7) =      9.66342  eV     1   --> A'             
     e(  8 -  8) =     13.57239  eV     1   --> A'             
     e(  9 -  9) =     13.60827  eV     1   --> A'             
     e( 10 - 10) =     13.60839  eV     1   --> A''            
     e( 11 - 11) =     14.87711  eV     1   --> A'             
     e( 12 - 12) =     18.68625  eV     1   --> A'             

 **************************************************************************

 **************************************************************************

                    xk=(  -0.27778,   0.27778,   0.27778  )

     Band symmetry, C_s (m)     point group:

     e(  1 -  1) =     -4.83879  eV     1   --> A'             
     e(  2 -  2) =      1.72593  eV     1   --> A'             
     e(  3 -  3) =      5.31575  eV     1   --> A'             
     e(  4 -  4) =      5.31603  eV     1   --> A''            
     e(  5 -  5) =      8.03387  eV     1   --> A'             
     e(  6 -  6) =      9.66222  eV     1   --> A''            
     e(  7 -  7) =      9.66253  eV     1   --> A'             
     e(  8 -  8) =     13.42916  eV     1   --> A'             
     e(  9 -  9) =     13.50965  eV     1   --> A'             
     e( 10 - 10) =     13.50976  eV     1   --> A''            
     e( 11 - 11) =     14.88252  eV     1   --> A'             
     e( 12 - 12) =     18.43896  eV     1   --> A'             

 **************************************************************************

 **************************************************************************

                    xk=(  -0.26667,   0.26667,   0.26667  )

     Band symmetry, C_s (m)     point group:

     e(  1 -  1) =     -4.91284  eV     1   --> A'             
     e(  2 -  2) =      1.92075  eV     1   --> A'             
     e(  3 -  3) =      5.35059  eV     1   --> A'             
     e(  4 -  4) =      5.35087  eV     1   --> A''            
     e(  5 -  5) =      8.07255  eV     1   --> A'             
     e(  6 -  6) =      9.65638  eV     1   --> A''            
     e(  7 -  7) =      9.65670  eV     1   --> A'             
     e(  8 -  8) =     13.26949  eV     1   --> A'             
     e(  9 -  9) =     13.42302  eV     1   --> A'             
     e( 10 - 10) =     13.42313  eV     1   --> A''            
     e( 11 - 11) =     14.90484  eV     1   --> A'             
     e( 12 - 12) =     18.19401  eV     1   --> A'             

 **************************************************************************

 **************************************************************************

                    xk=(  -0.25556,   0.25556,   0.25556  )

     Band symmetry, C_s (m)     point group:

     e(  1 -  1) =     -4.98448  eV     1   --> A'             
     e(  2 -  2) =      2.11843  eV     1   --> A'             
     e(  3 -  3) =      5.38684  eV     1   --> A'             
     e(  4 -  4) =      5.38713  eV     1   --> A''            
     e(  5 -  5) =      8.11259  eV     1   --> A'             
     e(  6 -  6) =      9.64509  eV     1   --> A''            
     e(  7 -  7) =      9.64539  eV     1   --> A'             
     e(  8 -  8) =     13.09821  eV     1   --> A'             
     e(  9 -  9) =     13.34888  eV     1   --> A'             
     e( 10 - 10) =     13.34899  eV     1   --> A''            
     e( 11 - 11) =     14.93821  eV     1   --> A'             
     e( 12 - 12) =     17.95428  eV     1   --> A'             

 **************************************************************************

 **************************************************************************

                    xk=(  -0.24444,   0.24444,   0.24444  )

     Band symmetry, C_s (m)     point group:

     e(  1 -  1) =     -5.05362  eV     1   --> A'             
     e(  2 -  2) =      2.31872  eV     1   --> A'             
     e(  3 -  3) =      5.42444  eV     1   --> A'             
     e(  4 -  4) =      5.42472  eV     1   --> A''            
     e(  5 -  5) =      8.15387  eV     1   --> A'             
     e(  6 -  6) =      9.62794  eV     1   --> A''            
     e(  7 -  7) =      9.62824  eV     1   --> A'             
     e(  8 -  8) =     12.91874  eV     1   --> A'             
     e(  9 - 10) =     13.28759  eV     2   --> A'             
     e(  9 - 10) =     13.28759  eV     2   --> A''            
     e( 11 - 11) =     14.97770  eV     1   --> A'             
     e( 12 - 12) =     17.72256  eV     1   --> A'             

 **************************************************************************

 **************************************************************************

                    xk=(  -0.23333,   0.23333,   0.23333  )

     Band symmetry, C_s (m)     point group:

     e(  1 -  1) =     -5.12014  eV     1   --> A'             
     e(  2 -  2) =      2.52139  eV     1   --> A'             
     e(  3 -  3) =      5.46329  eV     1   --> A'             
     e(  4 -  4) =      5.46357  eV     1   --> A''            
     e(  5 -  5) =      8.19625  eV     1   --> A'             
     e(  6 -  6) =      9.60470  eV     1   --> A''            
     e(  7 -  7) =      9.60499  eV     1   --> A'             
     e(  8 -  8) =     12.73346  eV     1   --> A'             
     e(  9 - 10) =     13.23934  eV     2   --> A'             
     e(  9 - 10) =     13.23934  eV     2   --> A''            
     e( 11 - 11) =     15.01898  eV     1   --> A'             
     e( 12 - 12) =     17.50189  eV     1   --> A'             

 **************************************************************************

 **************************************************************************

                    xk=(  -0.22222,   0.22222,   0.22222  )

     Band symmetry, C_s (m)     point group:

     e(  1 -  1) =     -5.18396  eV     1   --> A'             
     e(  2 -  2) =      2.72617  eV     1   --> A'             
     e(  3 -  3) =      5.50329  eV     1   --> A'             
     e(  4 -  4) =      5.50358  eV     1   --> A''            
     e(  5 -  5) =      8.23956  eV     1   --> A'             
     e(  6 -  6) =      9.57531  eV     1   --> A''            
     e(  7 -  7) =      9.57559  eV     1   --> A'             
     e(  8 -  8) =     12.54399  eV     1   --> A'             
     e(  9 - 10) =     13.20415  eV     2   --> A'             
     e(  9 - 10) =     13.20415  eV     2   --> A''            
     e( 11 - 11) =     15.05777  eV     1   --> A'             
     e( 12 - 12) =     17.29578  eV     1   --> A'             

 **************************************************************************

 **************************************************************************

                    xk=(  -0.21111,   0.21111,   0.21111  )

     Band symmetry, C_s (m)     point group:

     e(  1 -  1) =     -5.24501  eV     1   --> A'             
     e(  2 -  2) =      2.93282  eV     1   --> A'             
     e(  3 -  3) =      5.54434  eV     1   --> A'             
     e(  4 -  4) =      5.54463  eV     1   --> A''            
     e(  5 -  5) =      8.28363  eV     1   --> A'             
     e(  6 -  6) =      9.53991  eV     1   --> A''            
     e(  7 -  7) =      9.54018  eV     1   --> A'             
     e(  8 -  8) =     12.35146  eV     1   --> A'             
     e(  9 - 10) =     13.18184  eV     2   --> A'             
     e(  9 - 10) =     13.18184  eV     2   --> A''            
     e( 11 - 11) =     15.08942  eV     1   --> A'             
     e( 12 - 12) =     17.10848  eV     1   --> A'             

 **************************************************************************

 **************************************************************************

                    xk=(  -0.20000,   0.20000,   0.20000  )

     Band symmetry, C_s (m)     point group:

     e(  1 -  1) =     -5.30321  eV     1   --> A'             
     e(  2 -  2) =      3.14103  eV     1   --> A'             
     e(  3 -  3) =      5.58630  eV     1   --> A'             
     e(  4 -  4) =      5.58659  eV     1   --> A''            
     e(  5 -  5) =      8.32824  eV     1   --> A'             
     e(  6 -  6) =      9.49881  eV     1   --> A''            
     e(  7 -  7) =      9.49907  eV     1   --> A'             
     e(  8 -  8) =     12.15670  eV     1   --> A'             
     e(  9 - 10) =     13.17200  eV     2   --> A'             
     e(  9 - 10) =     13.17200  eV     2   --> A''            
     e( 11 - 11) =     15.10866  eV     1   --> A'             
     e( 12 - 12) =     16.94507  eV     1   --> A'             

 **************************************************************************

 **************************************************************************

                    xk=(  -0.18889,   0.18889,   0.18889  )

     Band symmetry, C_s (m)     point group:

     e(  1 -  1) =     -5.35852  eV     1   --> A'             
     e(  2 -  2) =      3.35050  eV     1   --> A'             
     e(  3 -  3) =      5.62901  eV     1   --> A'             
     e(  4 -  4) =      5.62930  eV     1   --> A''            
     e(  5 -  5) =      8.37314  eV     1   --> A'             
     e(  6 -  6) =      9.45251  eV     1   --> A''            
     e(  7 -  7) =      9.45276  eV     1   --> A'             
     e(  8 -  8) =     11.96035  eV     1   --> A'             
     e(  9 - 10) =     13.17405  eV     2   --> A'             
     e(  9 - 10) =     13.17405  eV     2   --> A''            
     e( 11 - 11) =     15.10980  eV     1   --> A'             
     e( 12 - 12) =     16.81115  eV     1   --> A'             

 **************************************************************************

 **************************************************************************

                    xk=(  -0.17778,   0.17778,   0.17778  )

     Band symmetry, C_s (m)     point group:

     e(  1 -  1) =     -5.41087  eV     1   --> A'             
     e(  2 -  2) =      3.56088  eV     1   --> A'             
     e(  3 -  3) =      5.67229  eV     1   --> A'             
     e(  4 -  4) =      5.67259  eV     1   --> A''            
     e(  5 -  5) =      8.41804  eV     1   --> A'             
     e(  6 -  6) =      9.40166  eV     1   --> A''            
     e(  7 -  7) =      9.40191  eV     1   --> A'             
     e(  8 -  8) =     11.76296  eV     1   --> A'             
     e(  9 - 10) =     13.18723  eV     2   --> A'             
     e(  9 - 10) =     13.18723  eV     2   --> A''            
     e( 11 - 11) =     15.08781  eV     1   --> A'             
     e( 12 - 12) =     16.71175  eV     1   --> A'             

 **************************************************************************

 **************************************************************************

                    xk=(  -0.16667,   0.16667,   0.16667  )

     Band symmetry, C_s (m)     point group:

     e(  1 -  1) =     -5.46023  eV     1   --> A'             
     e(  2 -  2) =      3.77177  eV     1   --> A'             
     e(  3 -  3) =      5.71594  eV     1   --> A'             
     e(  4 -  4) =      5.71624  eV     1   --> A''            
     e(  5 -  5) =      8.46261  eV     1   --> A'             
     e(  6 -  6) =      9.34703  eV     1   --> A''            
     e(  7 -  7) =      9.34727  eV     1   --> A'             
     e(  8 -  8) =     11.56507  eV     1   --> A'             
     e(  9 - 10) =     13.21064  eV     2   --> A'             
     e(  9 - 10) =     13.21064  eV     2   --> A''            
     e( 11 - 11) =     15.04005  eV     1   --> A'             
     e( 12 - 12) =     16.64950  eV     1   --> A'             

 **************************************************************************

 **************************************************************************

                    xk=(  -0.15556,   0.15556,   0.15556  )

     Band symmetry, C_s (m)     point group:

     e(  1 -  1) =     -5.50656  eV     1   --> A'             
     e(  2 -  2) =      3.98271  eV     1   --> A'             
     e(  3 -  3) =      5.75973  eV     1   --> A'             
     e(  4 -  4) =      5.76003  eV     1   --> A''            
     e(  5 -  5) =      8.50645  eV     1   --> A'             
     e(  6 -  6) =      9.28948  eV     1   --> A''            
     e(  7 -  7) =      9.28972  eV     1   --> A'             
     e(  8 -  8) =     11.36723  eV     1   --> A'             
     e(  9 - 10) =     13.24323  eV     2   --> A'             
     e(  9 - 10) =     13.24323  eV     2   --> A''            
     e( 11 - 11) =     14.96768  eV     1   --> A'             
     e( 12 - 12) =     16.62323  eV     1   --> A'             

 **************************************************************************

 **************************************************************************

                    xk=(  -0.14444,   0.14444,   0.14444  )

     Band symmetry, C_s (m)     point group:

     e(  1 -  1) =     -5.54982  eV     1   --> A'             
     e(  2 -  2) =      4.19314  eV     1   --> A'             
     e(  3 -  3) =      5.80337  eV     1   --> A'             
     e(  4 -  4) =      5.80367  eV     1   --> A''            
     e(  5 -  5) =      8.54911  eV     1   --> A'             
     e(  6 -  6) =      9.22993  eV     1   --> A''            
     e(  7 -  7) =      9.23016  eV     1   --> A'             
     e(  8 -  8) =     11.17011  eV     1   --> A'             
     e(  9 - 10) =     13.28389  eV     2   --> A'             
     e(  9 - 10) =     13.28389  eV     2   --> A''            
     e( 11 - 11) =     14.87538  eV     1   --> A'             
     e( 12 - 12) =     16.62821  eV     1   --> A'             

 **************************************************************************

 **************************************************************************

                    xk=(  -0.13333,   0.13333,   0.13333  )

     Band symmetry, C_s (m)     point group:

     e(  1 -  1) =     -5.58998  eV     1   --> A'             
     e(  2 -  2) =      4.40242  eV     1   --> A'             
     e(  3 -  3) =      5.84657  eV     1   --> A'             
     e(  4 -  4) =      5.84688  eV     1   --> A''            
     e(  5 -  5) =      8.59004  eV     1   --> A'             
     e(  6 -  6) =      9.16933  eV     1   --> A''            
     e(  7 -  7) =      9.16956  eV     1   --> A'             
     e(  8 -  8) =     10.97450  eV     1   --> A'             
     e(  9 - 10) =     13.33139  eV     2   --> A'             
     e(  9 - 10) =     13.33139  eV     2   --> A''            
     e( 11 - 11) =     14.76958  eV     1   --> A'             
     e( 12 - 12) =     16.65787  eV     1   --> A'             

 **************************************************************************

 **************************************************************************

                    xk=(  -0.12222,   0.12222,   0.12222  )

     Band symmetry, C_s (m)     point group:

     e(  1 -  1) =     -5.62701  eV     1   --> A'             
     e(  2 -  2) =      4.60974  eV     1   --> A'             
     e(  3 -  3) =      5.88897  eV     1   --> A'             
     e(  4 -  4) =      5.88928  eV     1   --> A''            
     e(  5 -  5) =      8.62859  eV     1   --> A'             
     e(  6 -  6) =      9.10865  eV     1   --> A''            
     e(  7 -  7) =      9.10887  eV     1   --> A'             
     e(  8 -  8) =     10.78141  eV     1   --> A'             
     e(  9 - 10) =     13.38444  eV     2   --> A'             
     e(  9 - 10) =     13.38444  eV     2   --> A''            
     e( 11 - 11) =     14.65666  eV     1   --> A'             
     e( 12 - 12) =     16.70561  eV     1   --> A'             

 **************************************************************************

 **************************************************************************

                    xk=(  -0.11111,   0.11111,   0.11111  )

     Band symmetry, C_s (m)     point group:

     e(  1 -  1) =     -5.66089  eV     1   --> A'             
     e(  2 -  2) =      4.81410  eV     1   --> A'             
     e(  3 -  3) =      5.93019  eV     1   --> A'             
     e(  4 -  4) =      5.93051  eV     1   --> A''            
     e(  5 -  5) =      8.66400  eV     1   --> A'             
     e(  6 -  6) =      9.04886  eV     1   --> A''            
     e(  7 -  7) =      9.04908  eV     1   --> A'             
     e(  8 -  8) =     10.59216  eV     1   --> A'             
     e(  9 - 10) =     13.44166  eV     2   --> A'             
     e(  9 - 10) =     13.44166  eV     2   --> A''            
     e( 11 - 11) =     14.54199  eV     1   --> A'             
     e( 12 - 12) =     16.76569  eV     1   --> A'             

 **************************************************************************

 **************************************************************************

                    xk=(  -0.10000,   0.10000,   0.10000  )

     Band symmetry, C_s (m)     point group:

     e(  1 -  1) =     -5.69160  eV     1   --> A'             
     e(  2 -  2) =      5.01428  eV     1   --> A'             
     e(  3 -  3) =      5.96980  eV     1   --> A'             
     e(  4 -  4) =      5.97012  eV     1   --> A''            
     e(  5 -  5) =      8.69532  eV     1   --> A'             
     e(  6 -  6) =      8.99092  eV     1   --> A''            
     e(  7 -  7) =      8.99114  eV     1   --> A'             
     e(  8 -  8) =     10.40844  eV     1   --> A'             
     e(  9 - 10) =     13.50157  eV     2   --> A'             
     e(  9 - 10) =     13.50157  eV     2   --> A''            
     e( 11 - 11) =     14.42979  eV     1   --> A'             
     e( 12 - 12) =     16.83342  eV     1   --> A'             

 **************************************************************************

 **************************************************************************

                    xk=(  -0.08889,   0.08889,   0.08889  )

     Band symmetry, C_s (m)     point group:

     e(  1 -  1) =     -5.71912  eV     1   --> A'             
     e(  2 -  2) =      5.20868  eV     1   --> A'             
     e(  3 -  3) =      6.00732  eV     1   --> A'             
     e(  4 -  4) =      6.00765  eV     1   --> A''            
     e(  5 -  5) =      8.72144  eV     1   --> A'             
     e(  6 -  6) =      8.93579  eV     1   --> A''            
     e(  7 -  7) =      8.93600  eV     1   --> A'             
     e(  8 -  8) =     10.23245  eV     1   --> A'             
     e(  9 - 10) =     13.56260  eV     2   --> A'             
     e(  9 - 10) =     13.56260  eV     2   --> A''            
     e( 11 - 11) =     14.32325  eV     1   --> A'             
     e( 12 - 12) =     16.90493  eV     1   --> A'             

 **************************************************************************

 **************************************************************************

                    xk=(  -0.07778,   0.07778,   0.07778  )

     Band symmetry, C_s (m)     point group:

     e(  1 -  1) =     -5.74344  eV     1   --> A'             
     e(  2 -  2) =      5.39528  eV     1   --> A'             
     e(  3 -  3) =      6.04224  eV     1   --> A'             
     e(  4 -  4) =      6.04257  eV     1   --> A''            
     e(  5 -  5) =      8.74105  eV     1   --> A'             
     e(  6 -  6) =      8.88439  eV     1   --> A''            
     e(  7 -  7) =      8.88460  eV     1   --> A'             
     e(  8 -  8) =     10.06703  eV     1   --> A'             
     e(  9 - 10) =     13.62306  eV     2   --> A'             
     e(  9 - 10) =     13.62306  eV     2   --> A''            
     e( 11 - 11) =     14.22480  eV     1   --> A'             
     e( 12 - 12) =     16.97694  eV     1   --> A'             

 **************************************************************************

 **************************************************************************

                    xk=(  -0.06667,   0.06667,   0.06667  )

     Band symmetry, C_s (m)     point group:

     e(  1 -  1) =     -5.76455  eV     1   --> A'             
     e(  2 -  2) =      5.57147  eV     1   --> A'             
     e(  3 -  3) =      6.07404  eV     1   --> A'             
     e(  4 -  4) =      6.07437  eV     1   --> A''            
     e(  5 -  5) =      8.75274  eV     1   --> A'             
     e(  6 -  6) =      8.83761  eV     1   --> A''            
     e(  7 -  7) =      8.83783  eV     1   --> A'             
     e(  8 -  8) =      9.91573  eV     1   --> A'             
     e(  9 - 10) =     13.68116  eV     2   --> A'             
     e(  9 - 10) =     13.68116  eV     2   --> A''            
     e( 11 - 11) =     14.13631  eV     1   --> A'             
     e( 12 - 12) =     17.04656  eV     1   --> A'             

 **************************************************************************

 **************************************************************************

                    xk=(  -0.05556,   0.05556,   0.05556  )

     Band symmetry, C_s (m)     point group:

     e(  1 -  1) =     -5.78242  eV     1   --> A'             
     e(  2 -  2) =      5.73391  eV     1   --> A'             
     e(  3 -  3) =      6.10216  eV     1   --> A'             
     e(  4 -  4) =      6.10250  eV     1   --> A''            
     e(  5 -  5) =      8.75532  eV     1   --> A'             
     e(  6 -  6) =      8.79632  eV     1   --> A''            
     e(  7 -  7) =      8.79654  eV     1   --> A'             
     e(  8 -  8) =      9.78260  eV     1   --> A'             
     e(  9 - 10) =     13.73500  eV     2   --> A'             
     e(  9 - 10) =     13.73500  eV     2   --> A''            
     e( 11 - 11) =     14.05923  eV     1   --> A'             
     e( 12 - 12) =     17.11112  eV     1   --> A'             

 **************************************************************************

 **************************************************************************

                    xk=(  -0.04444,   0.04444,   0.04444  )

     Band symmetry, C_s (m)     point group:

     e(  1 -  1) =     -5.79706  eV     1   --> A'             
     e(  2 -  2) =      5.87840  eV     1   --> A'             
     e(  3 -  3) =      6.12606  eV     1   --> A'             
     e(  4 -  4) =      6.12641  eV     1   --> A''            
     e(  5 -  5) =      8.74851  eV     1   --> A'             
     e(  6 -  6) =      8.76130  eV     1   --> A''            
     e(  7 -  7) =      8.76151  eV     1   --> A'             
     e(  8 -  8) =      9.67169  eV     1   --> A'             
     e(  9 - 10) =     13.78264  eV     2   --> A'             
     e(  9 - 10) =     13.78264  eV     2   --> A''            
     e( 11 - 11) =     13.99471  eV     1   --> A'             
     e( 12 - 12) =     17.16811  eV     1   --> A'             

 **************************************************************************

 **************************************************************************

                    xk=(  -0.03333,   0.03333,   0.03333  )

     Band symmetry, C_s (m)     point group:

     e(  1 -  1) =     -5.80845  eV     1   --> A'             
     e(  2 -  2) =      5.99985  eV     1   --> A'             
     e(  3 -  3) =      6.14526  eV     1   --> A'             
     e(  4 -  4) =      6.14561  eV     1   --> A''            
     e(  5 -  5) =      8.73325  eV     1   --> A''            
     e(  6 -  6) =      8.73345  eV     1   --> A'             
     e(  7 -  7) =      8.73403  eV     1   --> A'             
     e(  8 -  8) =      9.58599  eV     1   --> A'             
     e(  9 - 10) =     13.82217  eV     2   --> A'             
     e(  9 - 10) =     13.82217  eV     2   --> A''            
     e( 11 - 11) =     13.94364  eV     1   --> A'             
     e( 12 - 12) =     17.21527  eV     1   --> A'             

 **************************************************************************

 **************************************************************************

                    xk=(  -0.02222,   0.02222,   0.02222  )

     Band symmetry, C_s (m)     point group:

     e(  1 -  1) =     -5.81659  eV     1   --> A'             
     e(  2 -  2) =      6.09259  eV     1   --> A'             
     e(  3 -  3) =      6.15932  eV     1   --> A'             
     e(  4 -  4) =      6.15967  eV     1   --> A''            
     e(  5 -  5) =      8.71276  eV     1   --> A''            
     e(  6 -  6) =      8.71297  eV     1   --> A'             
     e(  7 -  7) =      8.71631  eV     1   --> A'             
     e(  8 -  8) =      9.52640  eV     1   --> A'             
     e(  9 - 10) =     13.85185  eV     2   --> A'             
     e(  9 - 10) =     13.85185  eV     2   --> A''            
     e( 11 - 11) =     13.90668  eV     1   --> A'             
     e( 12 - 12) =     17.25057  eV     1   --> A'             

 **************************************************************************

 **************************************************************************

                    xk=(  -0.01111,   0.01111,   0.01111  )

     Band symmetry, C_s (m)     point group:

     e(  1 -  1) =     -5.82148  eV     1   --> A'             
     e(  2 -  2) =      6.15107  eV     1   --> A'             
     e(  3 -  3) =      6.16790  eV     1   --> A'             
     e(  4 -  4) =      6.16825  eV     1   --> A''            
     e(  5 -  5) =      8.70028  eV     1   --> A''            
     e(  6 -  6) =      8.70049  eV     1   --> A'             
     e(  7 -  7) =      8.70175  eV     1   --> A'             
     e(  8 -  8) =      9.49185  eV     1   --> A'             
     e(  9 - 10) =     13.87029  eV     2   --> A'             
     e(  9 - 10) =     13.87029  eV     2   --> A''            
     e( 11 - 11) =     13.88432  eV     1   --> A'             
     e( 12 - 12) =     17.27245  eV     1   --> A'             

 **************************************************************************

 **************************************************************************

                    xk=(   0.00000,   0.00000,   0.00000  )

     point group C_3v (3m)  
     there are  3 classes
     the character table:

       E     2C3   3s_v 
A_1    1.00  1.00  1.00
A_2    1.00  1.00 -1.00
E      2.00 -1.00  0.00

     the symmetry operations in each class and the name of the first element:

     E        1
                                                                 
     2C3      2    3
                                                                 
     3s_v     4    5    6
                                                                 

     Band symmetry, C_3v (3m)   point group:

     e(  1 -  1) =     -5.82311  eV     1   --> A_1  L_1       
     e(  2 -  2) =      6.17074  eV     1   --> A_1  L_1       
     e(  3 -  4) =      6.17113  eV     2   --> E    L_3       
     e(  5 -  6) =      8.69609  eV     2   --> E    L_3       
     e(  7 -  7) =      8.69633  eV     1   --> A_1  L_1       
     e(  8 -  8) =      9.48060  eV     1   --> A_1  L_1       
     e(  9 - 10) =     13.87654  eV     2   --> E    L_3       
     e( 11 - 11) =     13.87684  eV     1   --> A_1  L_1       
     e( 12 - 12) =     17.27982  eV     1   -->   ?

 **************************************************************************

 **************************************************************************

                    xk=(  -0.01667,   0.00000,   0.00000  )

     point group C_s (m)    
     there are  2 classes
     the character table:

       E     s    
A'     1.00  1.00
A''    1.00 -1.00

     the symmetry operations in each class and the name of the first element:

     E        1
                                                                 
     s        2
                                                                 

     Band symmetry, C_s (m)     point group:

     e(  1 -  1) =     -5.82188  eV     1   --> A'             
     e(  2 -  2) =      6.16248  eV     1   --> A'             
     e(  3 -  3) =      6.16544  eV     1   --> A'             
     e(  4 -  4) =      6.16569  eV     1   --> A''            
     e(  5 -  5) =      8.69295  eV     1   --> A'             
     e(  6 -  6) =      8.70302  eV     1   --> A''            
     e(  7 -  7) =      8.70319  eV     1   --> A'             
     e(  8 -  8) =      9.48896  eV     1   --> A'             
     e(  9 -  9) =     13.86582  eV     1   --> A'             
     e( 10 - 10) =     13.87789  eV     1   --> A''            
     e( 11 - 11) =     13.88245  eV     1   --> A'             
     e( 12 - 12) =     17.28196  eV     1   -->   ?

 **************************************************************************

 **************************************************************************

                    xk=(  -0.03333,   0.00000,   0.00000  )

     Band symmetry, C_s (m)     point group:

     e(  1 -  1) =     -5.81822  eV     1   --> A'             
     e(  2 -  2) =      6.13723  eV     1   --> A'             
     e(  3 -  3) =      6.14928  eV     1   --> A'             
     e(  4 -  4) =      6.14954  eV     1   --> A''            
     e(  5 -  5) =      8.68334  eV     1   --> A'             
     e(  6 -  6) =      8.72364  eV     1   --> A''            
     e(  7 -  7) =      8.72380  eV     1   --> A'             
     e(  8 -  8) =      9.51371  eV     1   --> A'             
     e(  9 -  9) =     13.83409  eV     1   --> A'             
     e( 10 - 10) =     13.88193  eV     1   --> A''            
     e( 11 - 11) =     13.89925  eV     1   --> A'             
     e( 12 - 12) =     17.28838  eV     1   -->   ?

 **************************************************************************

 **************************************************************************

                    xk=(  -0.05000,   0.00000,   0.00000  )

     Band symmetry, C_s (m)     point group:

     e(  1 -  1) =     -5.81211  eV     1   --> A'             
     e(  2 -  2) =      6.09599  eV     1   --> A'             
     e(  3 -  3) =      6.12296  eV     1   --> A'             
     e(  4 -  4) =      6.12321  eV     1   --> A''            
     e(  5 -  5) =      8.66749  eV     1   --> A'             
     e(  6 -  6) =      8.75741  eV     1   --> A''            
     e(  7 -  7) =      8.75757  eV     1   --> A'             
     e(  8 -  8) =      9.55398  eV     1   --> A'             
     e(  9 -  9) =     13.78269  eV     1   --> A'             
     e( 10 - 10) =     13.88865  eV     1   --> A''            
     e( 11 - 11) =     13.92709  eV     1   --> A'             
     e( 12 - 12) =     17.29909  eV     1   -->   ?

 **************************************************************************

 **************************************************************************

                    xk=(  -0.06667,   0.00000,   0.00000  )

     Band symmetry, C_s (m)     point group:

     e(  1 -  1) =     -5.80356  eV     1   --> A'             
     e(  2 -  2) =      6.03994  eV     1   --> A'             
     e(  3 -  3) =      6.08727  eV     1   --> A'             
     e(  4 -  4) =      6.08752  eV     1   --> A''            
     e(  5 -  5) =      8.64562  eV     1   --> A'             
     e(  6 -  6) =      8.80353  eV     1   --> A''            
     e(  7 -  7) =      8.80368  eV     1   --> A'             
     e(  8 -  8) =      9.60840  eV     1   --> A'             
     e(  9 -  9) =     13.71362  eV     1   --> A'             
     e( 10 - 10) =     13.89807  eV     1   --> A''            
     e( 11 - 11) =     13.96573  eV     1   --> A'             
     e( 12 - 12) =     17.31403  eV     1   -->   ?

 **************************************************************************

 **************************************************************************

                    xk=(  -0.08333,   0.00000,   0.00000  )

     Band symmetry, C_s (m)     point group:

     e(  1 -  1) =     -5.79257  eV     1   --> A'             
     e(  2 -  2) =      5.97049  eV     1   --> A'             
     e(  3 -  3) =      6.04320  eV     1   --> A'             
     e(  4 -  4) =      6.04344  eV     1   --> A''            
     e(  5 -  5) =      8.61802  eV     1   --> A'             
     e(  6 -  6) =      8.86100  eV     1   --> A''            
     e(  7 -  7) =      8.86114  eV     1   --> A'             
     e(  8 -  8) =      9.67525  eV     1   --> A'             
     e(  9 -  9) =     13.62934  eV     1   --> A'             
     e( 10 - 10) =     13.91019  eV     1   --> A''            
     e( 11 - 11) =     14.01488  eV     1   --> A'             
     e( 12 - 12) =     17.33332  eV     1   -->   ?

 **************************************************************************

 **************************************************************************

                    xk=(  -0.10000,   0.00000,   0.00000  )

     Band symmetry, C_s (m)     point group:

     e(  1 -  1) =     -5.77914  eV     1   --> A'             
     e(  2 -  2) =      5.88918  eV     1   --> A'             
     e(  3 -  3) =      5.99182  eV     1   --> A'             
     e(  4 -  4) =      5.99205  eV     1   --> A''            
     e(  5 -  5) =      8.58505  eV     1   --> A'             
     e(  6 -  6) =      8.92874  eV     1   --> A''            
     e(  7 -  7) =      8.92887  eV     1   --> A'             
     e(  8 -  8) =      9.75258  eV     1   --> A'             
     e(  9 -  9) =     13.53263  eV     1   --> A'             
     e( 10 - 10) =     13.92499  eV     1   --> A''            
     e( 11 - 11) =     14.07415  eV     1   --> A'             
     e( 12 - 12) =     17.35676  eV     1   -->   ?

 **************************************************************************

 **************************************************************************

                    xk=(  -0.11667,   0.00000,   0.00000  )

     Band symmetry, C_s (m)     point group:

     e(  1 -  1) =     -5.76327  eV     1   --> A'             
     e(  2 -  2) =      5.79751  eV     1   --> A'             
     e(  3 -  3) =      5.93420  eV     1   --> A'             
     e(  4 -  4) =      5.93443  eV     1   --> A''            
     e(  5 -  5) =      8.54713  eV     1   --> A'             
     e(  6 -  6) =      9.00566  eV     1   --> A''            
     e(  7 -  7) =      9.00578  eV     1   --> A'             
     e(  8 -  8) =      9.83829  eV     1   --> A'             
     e(  9 -  9) =     13.42634  eV     1   --> A'             
     e( 10 - 10) =     13.94249  eV     1   --> A''            
     e( 11 - 11) =     14.14313  eV     1   --> A'             
     e( 12 - 12) =     17.38453  eV     1   -->   ?

 **************************************************************************

 **************************************************************************

                    xk=(  -0.13333,   0.00000,   0.00000  )

     Band symmetry, C_s (m)     point group:

     e(  1 -  1) =     -5.74497  eV     1   --> A'             
     e(  2 -  2) =      5.69692  eV     1   --> A'             
     e(  3 -  3) =      5.87140  eV     1   --> A'             
     e(  4 -  4) =      5.87161  eV     1   --> A''            
     e(  5 -  5) =      8.50470  eV     1   --> A'             
     e(  6 -  6) =      9.09071  eV     1   --> A''            
     e(  7 -  7) =      9.09083  eV     1   --> A'             
     e(  8 -  8) =      9.93017  eV     1   --> A'             
     e(  9 -  9) =     13.31337  eV     1   --> A'             
     e( 10 - 10) =     13.96267  eV     1   --> A''            
     e( 11 - 11) =     14.22136  eV     1   --> A'             
     e( 12 - 12) =     17.41654  eV     1   -->   ?

 **************************************************************************

 **************************************************************************

                    xk=(  -0.15000,   0.00000,   0.00000  )

     Band symmetry, C_s (m)     point group:

     e(  1 -  1) =     -5.72424  eV     1   --> A'             
     e(  2 -  2) =      5.58872  eV     1   --> A'             
     e(  3 -  3) =      5.80433  eV     1   --> A'             
     e(  4 -  4) =      5.80454  eV     1   --> A''            
     e(  5 -  5) =      8.45821  eV     1   --> A'             
     e(  6 -  6) =      9.18295  eV     1   --> A''            
     e(  7 -  7) =      9.18306  eV     1   --> A'             
     e(  8 -  8) =     10.02589  eV     1   --> A'             
     e(  9 -  9) =     13.19672  eV     1   --> A'             
     e( 10 - 10) =     13.98555  eV     1   --> A''            
     e( 11 - 11) =     14.30837  eV     1   --> A'             
     e( 12 - 12) =     17.45276  eV     1   -->   ?

 **************************************************************************

 **************************************************************************

                    xk=(  -0.16667,   0.00000,   0.00000  )

     Band symmetry, C_s (m)     point group:

     e(  1 -  1) =     -5.70108  eV     1   --> A'             
     e(  2 -  2) =      5.47403  eV     1   --> A'             
     e(  3 -  3) =      5.73387  eV     1   --> A'             
     e(  4 -  4) =      5.73407  eV     1   --> A''            
     e(  5 -  5) =      8.40812  eV     1   --> A'             
     e(  6 -  7) =      9.28150  eV     2   --> A'             
     e(  6 -  7) =      9.28150  eV     2   --> A''            
     e(  8 -  8) =     10.12290  eV     1   --> A'             
     e(  9 -  9) =     13.07947  eV     1   --> A'             
     e( 10 - 10) =     14.01112  eV     1   --> A''            
     e( 11 - 11) =     14.40366  eV     1   --> A'             
     e( 12 - 12) =     17.49324  eV     1   -->   ?

 **************************************************************************

 **************************************************************************

                    xk=(  -0.18333,   0.00000,   0.00000  )

     Band symmetry, C_s (m)     point group:

     e(  1 -  1) =     -5.67549  eV     1   --> A'             
     e(  2 -  2) =      5.35386  eV     1   --> A'             
     e(  3 -  3) =      5.66074  eV     1   --> A'             
     e(  4 -  4) =      5.66093  eV     1   --> A''            
     e(  5 -  5) =      8.35490  eV     1   --> A'             
     e(  6 -  7) =      9.38562  eV     2   --> A'             
     e(  6 -  7) =      9.38562  eV     2   --> A''            
     e(  8 -  8) =     10.21837  eV     1   --> A'             
     e(  9 -  9) =     12.96496  eV     1   --> A'             
     e( 10 - 10) =     14.03937  eV     1   --> A''            
     e( 11 - 11) =     14.50674  eV     1   --> A'             
     e( 12 - 12) =     17.53791  eV     1   --> A''            

 **************************************************************************

 **************************************************************************

                    xk=(  -0.20000,   0.00000,   0.00000  )

     Band symmetry, C_s (m)     point group:

     e(  1 -  1) =     -5.64748  eV     1   --> A'             
     e(  2 -  2) =      5.22905  eV     1   --> A'             
     e(  3 -  3) =      5.58558  eV     1   --> A'             
     e(  4 -  4) =      5.58577  eV     1   --> A''            
     e(  5 -  5) =      8.29900  eV     1   --> A'             
     e(  6 -  7) =      9.49464  eV     2   --> A'             
     e(  6 -  7) =      9.49464  eV     2   --> A''            
     e(  8 -  8) =     10.30900  eV     1   --> A'             
     e(  9 -  9) =     12.85689  eV     1   --> A'             
     e( 10 - 10) =     14.07031  eV     1   --> A''            
     e( 11 - 11) =     14.61714  eV     1   --> A'             
     e( 12 - 12) =     17.58677  eV     1   -->   ?

 **************************************************************************

 **************************************************************************

                    xk=(  -0.21667,   0.00000,   0.00000  )

     Band symmetry, C_s (m)     point group:

     e(  1 -  1) =     -5.61706  eV     1   --> A'             
     e(  2 -  2) =      5.10030  eV     1   --> A'             
     e(  3 -  3) =      5.50896  eV     1   --> A'             
     e(  4 -  4) =      5.50914  eV     1   --> A''            
     e(  5 -  5) =      8.24085  eV     1   --> A'             
     e(  6 -  7) =      9.60799  eV     2   --> A'             
     e(  6 -  7) =      9.60799  eV     2   --> A''            
     e(  8 -  8) =     10.39096  eV     1   --> A'             
     e(  9 -  9) =     12.75947  eV     1   --> A'             
     e( 10 - 10) =     14.10394  eV     1   --> A''            
     e( 11 - 11) =     14.73439  eV     1   --> A'             
     e( 12 - 12) =     17.63978  eV     1   -->   ?

 **************************************************************************

 **************************************************************************

                    xk=(  -0.23333,   0.00000,   0.00000  )

     Band symmetry, C_s (m)     point group:

     e(  1 -  1) =     -5.58422  eV     1   --> A'             
     e(  2 -  2) =      4.96823  eV     1   --> A'             
     e(  3 -  3) =      5.43135  eV     1   --> A'             
     e(  4 -  4) =      5.43152  eV     1   --> A''            
     e(  5 -  5) =      8.18086  eV     1   --> A'             
     e(  6 -  7) =      9.72519  eV     2   --> A'             
     e(  6 -  7) =      9.72519  eV     2   --> A''            
     e(  8 -  8) =     10.45982  eV     1   --> A'             
     e(  9 -  9) =     12.67745  eV     1   --> A'             
     e( 10 - 10) =     14.14026  eV     1   --> A''            
     e( 11 - 11) =     14.85804  eV     1   --> A'             
     e( 12 - 12) =     17.69693  eV     1   -->   ?

 **************************************************************************

 **************************************************************************

                    xk=(  -0.25000,   0.00000,   0.00000  )

     Band symmetry, C_s (m)     point group:

     e(  1 -  1) =     -5.54897  eV     1   --> A'             
     e(  2 -  2) =      4.83333  eV     1   --> A'             
     e(  3 -  3) =      5.35315  eV     1   --> A'             
     e(  4 -  4) =      5.35331  eV     1   --> A''            
     e(  5 -  5) =      8.11940  eV     1   --> A'             
     e(  6 -  7) =      9.84581  eV     2   --> A'             
     e(  6 -  7) =      9.84581  eV     2   --> A''            
     e(  8 -  8) =     10.51077  eV     1   --> A'             
     e(  9 -  9) =     12.61591  eV     1   --> A'             
     e( 10 - 10) =     14.17927  eV     1   --> A''            
     e( 11 - 11) =     14.98767  eV     1   --> A'             
     e( 12 - 12) =     17.75815  eV     1   -->   ?

 **************************************************************************

 **************************************************************************

                    xk=(  -0.26667,   0.00000,   0.00000  )

     Band symmetry, C_s (m)     point group:

     e(  1 -  1) =     -5.51133  eV     1   --> A'             
     e(  2 -  2) =      4.69604  eV     1   --> A'             
     e(  3 -  3) =      5.27470  eV     1   --> A'             
     e(  4 -  4) =      5.27486  eV     1   --> A''            
     e(  5 -  5) =      8.05685  eV     1   --> A'             
     e(  6 -  7) =      9.96948  eV     2   --> A'             
     e(  6 -  7) =      9.96948  eV     2   --> A''            
     e(  8 -  8) =     10.53929  eV     1   --> A'             
     e(  9 -  9) =     12.57960  eV     1   --> A'             
     e( 10 - 10) =     14.22096  eV     1   --> A''            
     e( 11 - 11) =     15.12285  eV     1   --> A'             
     e( 12 - 12) =     17.82341  eV     1   -->   ?

 **************************************************************************

 **************************************************************************

                    xk=(  -0.28333,   0.00000,   0.00000  )

     Band symmetry, C_s (m)     point group:

     e(  1 -  1) =     -5.47129  eV     1   --> A'             
     e(  2 -  2) =      4.55670  eV     1   --> A'             
     e(  3 -  3) =      5.19630  eV     1   --> A'             
     e(  4 -  4) =      5.19646  eV     1   --> A''            
     e(  5 -  5) =      7.99354  eV     1   --> A'             
     e(  6 -  7) =     10.09589  eV     2   --> A'             
     e(  6 -  7) =     10.09589  eV     2   --> A''            
     e(  8 -  8) =     10.54209  eV     1   --> A'             
     e(  9 -  9) =     12.57203  eV     1   --> A'             
     e( 10 - 10) =     14.26533  eV     1   --> A''            
     e( 11 - 11) =     15.26320  eV     1   --> A'             
     e( 12 - 12) =     17.89262  eV     1   -->   ?

 **************************************************************************

 **************************************************************************

                    xk=(  -0.30000,   0.00000,   0.00000  )

     Band symmetry, C_s (m)     point group:

     e(  1 -  1) =     -5.42886  eV     1   --> A'             
     e(  2 -  2) =      4.41563  eV     1   --> A'             
     e(  3 -  3) =      5.11822  eV     1   --> A'             
     e(  4 -  4) =      5.11837  eV     1   --> A''            
     e(  5 -  5) =      7.92976  eV     1   --> A'             
     e(  6 -  7) =     10.22476  eV     2   --> A'             
     e(  6 -  7) =     10.22476  eV     2   --> A''            
     e(  8 -  8) =     10.51810  eV     1   --> A'             
     e(  9 -  9) =     12.59444  eV     1   --> A'             
     e( 10 - 10) =     14.31238  eV     1   --> A''            
     e( 11 - 11) =     15.40836  eV     1   --> A'             
     e( 12 - 12) =     17.96573  eV     1   -->   ?

 **************************************************************************

 **************************************************************************

                    xk=(  -0.31667,   0.00000,   0.00000  )

     Band symmetry, C_s (m)     point group:

     e(  1 -  1) =     -5.38404  eV     1   --> A'             
     e(  2 -  2) =      4.27306  eV     1   --> A'             
     e(  3 -  3) =      5.04066  eV     1   --> A'             
     e(  4 -  4) =      5.04080  eV     1   --> A''            
     e(  5 -  5) =      7.86581  eV     1   --> A'             
     e(  6 -  7) =     10.35587  eV     2   --> A'             
     e(  6 -  7) =     10.35587  eV     2   --> A''            
     e(  8 -  8) =     10.46872  eV     1   --> A'             
     e(  9 -  9) =     12.64555  eV     1   --> A'             
     e( 10 - 10) =     14.36212  eV     1   --> A''            
     e( 11 - 11) =     15.55795  eV     1   --> A'             
     e( 12 - 12) =     18.04264  eV     1   -->   ?

 **************************************************************************

 **************************************************************************

                    xk=(  -0.33333,   0.00000,   0.00000  )

     Band symmetry, C_s (m)     point group:

     e(  1 -  1) =     -5.33686  eV     1   --> A'             
     e(  2 -  2) =      4.12922  eV     1   --> A'             
     e(  3 -  3) =      4.96381  eV     1   --> A'             
     e(  4 -  4) =      4.96395  eV     1   --> A''            
     e(  5 -  5) =      7.80194  eV     1   --> A'             
     e(  6 -  6) =     10.39732  eV     1   --> A'             
     e(  7 -  8) =     10.48900  eV     2   --> A'             
     e(  7 -  8) =     10.48900  eV     2   --> A''            
     e(  9 -  9) =     12.72216  eV     1   --> A'             
     e( 10 - 10) =     14.41454  eV     1   --> A''            
     e( 11 - 11) =     15.71165  eV     1   --> A'             
     e( 12 - 12) =     18.12323  eV     1   -->   ?

 **************************************************************************

 **************************************************************************

                    xk=(  -0.35000,   0.00000,   0.00000  )

     Band symmetry, C_s (m)     point group:

     e(  1 -  1) =     -5.28730  eV     1   --> A'             
     e(  2 -  2) =      3.98429  eV     1   --> A'             
     e(  3 -  3) =      4.88785  eV     1   --> A'             
     e(  4 -  4) =      4.88799  eV     1   --> A''            
     e(  5 -  5) =      7.73839  eV     1   --> A'             
     e(  6 -  6) =     10.30810  eV     1   --> A'             
     e(  7 -  8) =     10.62397  eV     2   --> A'             
     e(  7 -  8) =     10.62397  eV     2   --> A''            
     e(  9 -  9) =     12.82015  eV     1   --> A'             
     e( 10 - 10) =     14.46963  eV     1   --> A''            
     e( 11 - 11) =     15.86911  eV     1   --> A'             
     e( 12 - 12) =     18.20737  eV     1   -->   ?

 **************************************************************************

 **************************************************************************

                    xk=(  -0.36667,   0.00000,   0.00000  )

     Band symmetry, C_s (m)     point group:

     e(  1 -  1) =     -5.23539  eV     1   --> A'             
     e(  2 -  2) =      3.83842  eV     1   --> A'             
     e(  3 -  3) =      4.81291  eV     1   --> A'             
     e(  4 -  4) =      4.81304  eV     1   --> A''            
     e(  5 -  5) =      7.67537  eV     1   --> A'             
     e(  6 -  6) =     10.20522  eV     1   --> A'             
     e(  7 -  8) =     10.76061  eV     2   --> A'             
     e(  7 -  8) =     10.76061  eV     2   --> A''            
     e(  9 -  9) =     12.93545  eV     1   --> A'             
     e( 10 - 10) =     14.52741  eV     1   --> A''            
     e( 11 - 11) =     16.03002  eV     1   --> A'             
     e( 12 - 12) =     18.29488  eV     1   -->   ?

 **************************************************************************

 **************************************************************************

                    xk=(  -0.38333,   0.00000,   0.00000  )

     Band symmetry, C_s (m)     point group:

     e(  1 -  1) =     -5.18112  eV     1   --> A'             
     e(  2 -  2) =      3.69175  eV     1   --> A'             
     e(  3 -  3) =      4.73911  eV     1   --> A'             
     e(  4 -  4) =      4.73925  eV     1   --> A''            
     e(  5 -  5) =      7.61309  eV     1   --> A'             
     e(  6 -  6) =     10.09231  eV     1   --> A'             
     e(  7 -  8) =     10.89880  eV     2   --> A'             
     e(  7 -  8) =     10.89880  eV     2   --> A''            
     e(  9 -  9) =     13.06448  eV     1   --> A'             
     e( 10 - 10) =     14.58783  eV     1   --> A''            
     e( 11 - 11) =     16.19405  eV     1   --> A'             
     e( 12 - 12) =     18.38556  eV     1   -->   ?

 **************************************************************************

 **************************************************************************

                    xk=(  -0.40000,   0.00000,   0.00000  )

     Band symmetry, C_s (m)     point group:

     e(  1 -  1) =     -5.12452  eV     1   --> A'             
     e(  2 -  2) =      3.54439  eV     1   --> A'             
     e(  3 -  3) =      4.66658  eV     1   --> A'             
     e(  4 -  4) =      4.66671  eV     1   --> A''            
     e(  5 -  5) =      7.55173  eV     1   --> A'             
     e(  6 -  6) =      9.97234  eV     1   --> A'             
     e(  7 -  8) =     11.03840  eV     2   --> A'             
     e(  7 -  8) =     11.03840  eV     2   --> A''            
     e(  9 -  9) =     13.20434  eV     1   --> A'             
     e( 10 - 10) =     14.65095  eV     1   --> A''            
     e( 11 - 11) =     16.36089  eV     1   --> A'             
     e( 12 - 12) =     18.47919  eV     1   -->   ?

 **************************************************************************

 **************************************************************************

                    xk=(  -0.41667,   0.00000,   0.00000  )

     Band symmetry, C_s (m)     point group:

     e(  1 -  1) =     -5.06558  eV     1   --> A'             
     e(  2 -  2) =      3.39645  eV     1   --> A'             
     e(  3 -  3) =      4.59540  eV     1   --> A'             
     e(  4 -  4) =      4.59553  eV     1   --> A''            
     e(  5 -  5) =      7.49144  eV     1   --> A'             
     e(  6 -  6) =      9.84762  eV     1   --> A'             
     e(  7 -  8) =     11.17930  eV     2   --> A'             
     e(  7 -  8) =     11.17930  eV     2   --> A''            
     e(  9 -  9) =     13.35273  eV     1   --> A'             
     e( 10 - 10) =     14.71675  eV     1   --> A''            
     e( 11 - 11) =     16.53022  eV     1   --> A'             
     e( 12 - 12) =     18.57535  eV     1   -->   ?

 **************************************************************************

 **************************************************************************

                    xk=(  -0.43333,   0.00000,   0.00000  )

     Band symmetry, C_s (m)     point group:

     e(  1 -  1) =     -5.00433  eV     1   --> A'             
     e(  2 -  2) =      3.24802  eV     1   --> A'             
     e(  3 -  3) =      4.52567  eV     1   --> A'             
     e(  4 -  4) =      4.52579  eV     1   --> A''            
     e(  5 -  5) =      7.43240  eV     1   --> A'             
     e(  6 -  6) =      9.71995  eV     1   --> A'             
     e(  7 -  8) =     11.32141  eV     2   --> A'             
     e(  7 -  8) =     11.32141  eV     2   --> A''            
     e(  9 -  9) =     13.50789  eV     1   --> A'             
     e( 10 - 10) =     14.78521  eV     1   --> A''            
     e( 11 - 11) =     16.70169  eV     1   --> A'             
     e( 12 - 12) =     18.67384  eV     1   -->   ?

 **************************************************************************

 **************************************************************************

                    xk=(  -0.45000,   0.00000,   0.00000  )

     Band symmetry, C_s (m)     point group:

     e(  1 -  1) =     -4.94076  eV     1   --> A'             
     e(  2 -  2) =      3.09917  eV     1   --> A'             
     e(  3 -  3) =      4.45745  eV     1   --> A'             
     e(  4 -  4) =      4.45757  eV     1   --> A''            
     e(  5 -  5) =      7.37473  eV     1   --> A'             
     e(  6 -  6) =      9.59071  eV     1   --> A'             
     e(  7 -  8) =     11.46463  eV     2   --> A'             
     e(  7 -  8) =     11.46463  eV     2   --> A''            
     e(  9 -  9) =     13.66843  eV     1   --> A'             
     e( 10 - 10) =     14.85635  eV     1   --> A''            
     e( 11 - 11) =     16.87498  eV     1   --> A'             
     e( 12 - 12) =     18.77384  eV     1   -->   ?

 **************************************************************************

 **************************************************************************

                    xk=(  -0.46667,   0.00000,   0.00000  )

     Band symmetry, C_s (m)     point group:

     e(  1 -  1) =     -4.87489  eV     1   --> A'             
     e(  2 -  2) =      2.94999  eV     1   --> A'             
     e(  3 -  3) =      4.39082  eV     1   --> A'             
     e(  4 -  4) =      4.39093  eV     1   --> A''            
     e(  5 -  5) =      7.31856  eV     1   --> A'             
     e(  6 -  6) =      9.46097  eV     1   --> A'             
     e(  7 -  8) =     11.60890  eV     2   --> A'             
     e(  7 -  8) =     11.60890  eV     2   --> A''            
     e(  9 -  9) =     13.83326  eV     1   --> A'             
     e( 10 - 10) =     14.93015  eV     1   --> A''            
     e( 11 - 11) =     17.04971  eV     1   --> A'             
     e( 12 - 12) =     18.87504  eV     1   -->   ?

 **************************************************************************

 **************************************************************************

                    xk=(  -0.48333,   0.00000,   0.00000  )

     Band symmetry, C_s (m)     point group:

     e(  1 -  1) =     -4.80674  eV     1   --> A'             
     e(  2 -  2) =      2.80054  eV     1   --> A'             
     e(  3 -  3) =      4.32583  eV     1   --> A'             
     e(  4 -  4) =      4.32595  eV     1   --> A''            
     e(  5 -  5) =      7.26401  eV     1   --> A'             
     e(  6 -  6) =      9.33156  eV     1   --> A'             
     e(  7 -  8) =     11.75413  eV     2   --> A'             
     e(  7 -  8) =     11.75413  eV     2   --> A''            
     e(  9 -  9) =     14.00153  eV     1   --> A'             
     e( 10 - 10) =     15.00662  eV     1   --> A''            
     e( 11 - 11) =     17.22551  eV     1   --> A'             
     e( 12 - 12) =     18.97660  eV     1   -->   ?

 **************************************************************************

 **************************************************************************

                    xk=(  -0.50000,   0.00000,   0.00000  )

     Band symmetry, C_s (m)     point group:

     e(  1 -  1) =     -4.73632  eV     1   --> A'             
[...]

     e(  1 -  1) =     -5.04627  eV     1   --> A              
     e(  2 -  2) =      2.84412  eV     1   --> A              
     e(  3 -  3) =      4.03514  eV     1   --> A              
     e(  4 -  4) =      5.72617  eV     1   --> A              
     e(  5 -  5) =      9.18833  eV     1   --> A              
     e(  6 -  6) =      9.50343  eV     1   --> A              
     e(  7 -  7) =      9.75146  eV     1   --> A              
     e(  8 -  8) =     11.74439  eV     1   --> A              
     e(  9 -  9) =     12.27483  eV     1   --> A              
     e( 10 - 10) =     14.89824  eV     1   --> A              
     e( 11 - 11) =     16.20767  eV     1   --> A              
     e( 12 - 12) =     17.37790  eV     1   --> A              

 **************************************************************************

 **************************************************************************

                    xk=(  -0.28333,   0.00000,   0.28333  )

     Band symmetry, C_1 (1)     point group:

     e(  1 -  1) =     -5.12861  eV     1   --> A              
     e(  2 -  2) =      3.05121  eV     1   --> A              
     e(  3 -  3) =      4.19451  eV     1   --> A              
     e(  4 -  4) =      5.78107  eV     1   --> A              
     e(  5 -  5) =      9.18898  eV     1   --> A              
     e(  6 -  6) =      9.41649  eV     1   --> A              
     e(  7 -  7) =      9.65509  eV     1   --> A              
     e(  8 -  8) =     11.73163  eV     1   --> A              
     e(  9 -  9) =     12.32341  eV     1   --> A              
     e( 10 - 10) =     14.62113  eV     1   --> A              
     e( 11 - 11) =     16.05513  eV     1   --> A              
     e( 12 - 12) =     17.31203  eV     1   --> A              

 **************************************************************************

 **************************************************************************

                    xk=(  -0.26667,   0.00000,   0.26667  )

     Band symmetry, C_1 (1)     point group:

     e(  1 -  1) =     -5.20662  eV     1   --> A              
     e(  2 -  2) =      3.26161  eV     1   --> A              
     e(  3 -  3) =      4.35473  eV     1   --> A              
     e(  4 -  4) =      5.83195  eV     1   --> A              
     e(  5 -  5) =      9.18313  eV     1   --> A              
     e(  6 -  6) =      9.33445  eV     1   --> A              
     e(  7 -  7) =      9.56274  eV     1   --> A              
     e(  8 -  8) =     11.70440  eV     1   --> A              
     e(  9 -  9) =     12.38313  eV     1   --> A              
     e( 10 - 10) =     14.37284  eV     1   --> A              
     e( 11 - 11) =     15.89319  eV     1   --> A              
     e( 12 - 12) =     17.25464  eV     1   --> A              

 **************************************************************************

 **************************************************************************

                    xk=(  -0.25000,   0.00000,   0.25000  )

     Band symmetry, C_1 (1)     point group:

     e(  1 -  1) =     -5.28024  eV     1   --> A              
     e(  2 -  2) =      3.47502  eV     1   --> A              
     e(  3 -  3) =      4.51513  eV     1   --> A              
     e(  4 -  4) =      5.87876  eV     1   --> A              
     e(  5 -  5) =      9.17182  eV     1   --> A              
     e(  6 -  6) =      9.25734  eV     1   --> A              
     e(  7 -  7) =      9.47437  eV     1   --> A              
     e(  8 -  8) =     11.65499  eV     1   --> A              
     e(  9 -  9) =     12.45365  eV     1   --> A              
     e( 10 - 10) =     14.15964  eV     1   --> A              
     e( 11 - 11) =     15.72401  eV     1   --> A              
     e( 12 - 12) =     17.20598  eV     1   --> A              

 **************************************************************************

 **************************************************************************

                    xk=(  -0.23333,   0.00000,   0.23333  )

     Band symmetry, C_1 (1)     point group:

     e(  1 -  1) =     -5.34938  eV     1   --> A              
     e(  2 -  2) =      3.69111  eV     1   --> A              
     e(  3 -  3) =      4.67501  eV     1   --> A              
     e(  4 -  4) =      5.92152  eV     1   --> A              
     e(  5 -  5) =      9.15604  eV     1   --> A              
     e(  6 -  6) =      9.18516  eV     1   --> A              
     e(  7 -  7) =      9.38990  eV     1   --> A              
     e(  8 -  8) =     11.57638  eV     1   --> A              
     e(  9 -  9) =     12.53452  eV     1   --> A              
     e( 10 - 10) =     13.98711  eV     1   --> A              
     e( 11 - 11) =     15.54979  eV     1   --> A              
     e( 12 - 12) =     17.16626  eV     1   --> A              

 **************************************************************************

 **************************************************************************

                    xk=(  -0.21667,   0.00000,   0.21667  )

     Band symmetry, C_1 (1)     point group:

     e(  1 -  1) =     -5.41398  eV     1   --> A              
     e(  2 -  2) =      3.90943  eV     1   --> A              
     e(  3 -  3) =      4.83356  eV     1   --> A              
     e(  4 -  4) =      5.96027  eV     1   --> A              
     e(  5 -  5) =      9.11792  eV     1   --> A              
     e(  6 -  6) =      9.13670  eV     1   --> A              
     e(  7 -  7) =      9.30928  eV     1   --> A              
     e(  8 -  8) =     11.46422  eV     1   --> A              
     e(  9 -  9) =     12.62511  eV     1   --> A              
     e( 10 - 10) =     13.85824  eV     1   --> A              
     e( 11 - 11) =     15.37282  eV     1   --> A              
     e( 12 - 12) =     17.13567  eV     1   --> A              

 **************************************************************************

 **************************************************************************

                    xk=(  -0.20000,   0.00000,   0.20000  )

     Band symmetry, C_1 (1)     point group:

     e(  1 -  1) =     -5.47399  eV     1   --> A              
     e(  2 -  2) =      4.12943  eV     1   --> A              
     e(  3 -  3) =      4.98985  eV     1   --> A              
     e(  4 -  4) =      5.99513  eV     1   --> A              
     e(  5 -  5) =      9.05563  eV     1   --> A              
     e(  6 -  6) =      9.11453  eV     1   --> A              
     e(  7 -  7) =      9.23249  eV     1   --> A              
     e(  8 -  8) =     11.31855  eV     1   --> A              
     e(  9 -  9) =     12.72463  eV     1   --> A              
     e( 10 - 10) =     13.77187  eV     1   --> A              
     e( 11 - 11) =     15.19548  eV     1   --> A              
     e( 12 - 12) =     17.11431  eV     1   --> A              

 **************************************************************************

 **************************************************************************

                    xk=(  -0.18333,   0.00000,   0.18333  )

     Band symmetry, C_1 (1)     point group:

     e(  1 -  1) =     -5.52937  eV     1   --> A              
     e(  2 -  2) =      4.35042  eV     1   --> A              
     e(  3 -  3) =      5.14286  eV     1   --> A              
     e(  4 -  4) =      6.02623  eV     1   --> A              
     e(  5 -  5) =      8.99829  eV     1   --> A              
     e(  6 -  6) =      9.09012  eV     1   --> A              
     e(  7 -  7) =      9.15952  eV     1   --> A              
     e(  8 -  8) =     11.14376  eV     1   --> A              
     e(  9 -  9) =     12.83210  eV     1   --> A              
     e( 10 - 10) =     13.72274  eV     1   --> A              
     e( 11 - 11) =     15.02023  eV     1   --> A              
     e( 12 - 12) =     17.10215  eV     1   --> A              

 **************************************************************************

 **************************************************************************

                    xk=(  -0.16667,   0.00000,   0.16667  )

     Band symmetry, C_1 (1)     point group:

     e(  1 -  1) =     -5.58006  eV     1   --> A              
     e(  2 -  2) =      4.57150  eV     1   --> A              
     e(  3 -  3) =      5.29142  eV     1   --> A              
     e(  4 -  4) =      6.05373  eV     1   --> A              
     e(  5 -  5) =      8.94592  eV     1   --> A              
     e(  6 -  6) =      9.06379  eV     1   --> A              
     e(  7 -  7) =      9.09042  eV     1   --> A              
     e(  8 -  8) =     10.94713  eV     1   --> A              
     e(  9 -  9) =     12.94629  eV     1   --> A              
     e( 10 - 10) =     13.70314  eV     1   --> A              
     e( 11 - 11) =     14.84954  eV     1   --> A              
     e( 12 - 12) =     17.09897  eV     1   --> A              

 **************************************************************************

 **************************************************************************

                    xk=(  -0.15000,   0.00000,   0.15000  )

     Band symmetry, C_1 (1)     point group:

     e(  1 -  1) =     -5.62603  eV     1   --> A              
     e(  2 -  2) =      4.79150  eV     1   --> A              
     e(  3 -  3) =      5.43421  eV     1   --> A              
     e(  4 -  4) =      6.07781  eV     1   --> A              
     e(  5 -  5) =      8.89852  eV     1   --> A              
     e(  6 -  6) =      9.02529  eV     1   --> A              
     e(  7 -  7) =      9.03562  eV     1   --> A              
     e(  8 -  8) =     10.73692  eV     1   --> A              
     e(  9 -  9) =     13.06566  eV     1   --> A              
     e( 10 - 10) =     13.70491  eV     1   --> A              
     e( 11 - 11) =     14.68585  eV     1   --> A              
     e( 12 - 12) =     17.10428  eV     1   --> A              

 **************************************************************************

 **************************************************************************

                    xk=(  -0.13333,   0.00000,   0.13333  )

     Band symmetry, C_1 (1)     point group:

     e(  1 -  1) =     -5.66725  eV     1   --> A              
     e(  2 -  2) =      5.00883  eV     1   --> A              
     e(  3 -  3) =      5.56974  eV     1   --> A              
     e(  4 -  4) =      6.09869  eV     1   --> A              
     e(  5 -  5) =      8.85609  eV     1   --> A              
     e(  6 -  6) =      8.96435  eV     1   --> A              
     e(  7 -  7) =      9.00535  eV     1   --> A              
     e(  8 -  8) =     10.52132  eV     1   --> A              
     e(  9 -  9) =     13.18833  eV     1   --> A              
     e( 10 - 10) =     13.72079  eV     1   --> A              
     e( 11 - 11) =     14.53156  eV     1   --> A              
     e( 12 - 12) =     17.11731  eV     1   --> A              

 **************************************************************************

 **************************************************************************

                    xk=(  -0.11667,   0.00000,   0.11667  )

     Band symmetry, C_1 (1)     point group:

     e(  1 -  1) =     -5.70368  eV     1   --> A              
     e(  2 -  2) =      5.22141  eV     1   --> A              
     e(  3 -  3) =      5.69636  eV     1   --> A              
     e(  4 -  4) =      6.11654  eV     1   --> A              
     e(  5 -  5) =      8.81864  eV     1   --> A              
     e(  6 -  6) =      8.90793  eV     1   --> A              
     e(  7 -  7) =      8.97235  eV     1   --> A              
     e(  8 -  8) =     10.30817  eV     1   --> A              
     e(  9 -  9) =     13.31192  eV     1   --> A              
     e( 10 - 10) =     13.74484  eV     1   --> A              
     e( 11 - 11) =     14.38897  eV     1   --> A              
     e( 12 - 12) =     17.13683  eV     1   --> A              

 **************************************************************************

 **************************************************************************

                    xk=(  -0.10000,   0.00000,   0.10000  )

     Band symmetry, C_1 (1)     point group:

     e(  1 -  1) =     -5.73530  eV     1   --> A              
     e(  2 -  2) =      5.42633  eV     1   --> A              
     e(  3 -  3) =      5.81223  eV     1   --> A              
     e(  4 -  4) =      6.13156  eV     1   --> A              
     e(  5 -  5) =      8.78618  eV     1   --> A              
     e(  6 -  6) =      8.85650  eV     1   --> A              
     e(  7 -  7) =      8.93555  eV     1   --> A              
     e(  8 -  8) =     10.10528  eV     1   --> A              
     e(  9 -  9) =     13.43349  eV     1   --> A              
     e( 10 - 10) =     13.77249  eV     1   --> A              
     e( 11 - 11) =     14.26024  eV     1   --> A              
     e( 12 - 12) =     17.16124  eV     1   --> A              

 **************************************************************************

 **************************************************************************

                    xk=(  -0.08333,   0.00000,   0.08333  )

     Band symmetry, C_1 (1)     point group:

     e(  1 -  1) =     -5.76210  eV     1   --> A              
     e(  2 -  2) =      5.61965  eV     1   --> A              
     e(  3 -  3) =      5.91536  eV     1   --> A              
     e(  4 -  4) =      6.14394  eV     1   --> A              
     e(  5 -  5) =      8.75871  eV     1   --> A              
     e(  6 -  6) =      8.81072  eV     1   --> A              
     e(  7 -  7) =      8.89371  eV     1   --> A              
     e(  8 -  8) =      9.92069  eV     1   --> A              
     e(  9 -  9) =     13.54944  eV     1   --> A              
     e( 10 - 10) =     13.80033  eV     1   --> A              
     e( 11 - 11) =     14.14743  eV     1   --> A              
     e( 12 - 12) =     17.18847  eV     1   --> A              

 **************************************************************************

 **************************************************************************

                    xk=(  -0.06667,   0.00000,   0.06667  )

     Band symmetry, C_1 (1)     point group:

     e(  1 -  1) =     -5.78404  eV     1   --> A              
     e(  2 -  2) =      5.79600  eV     1   --> A              
     e(  3 -  3) =      6.00369  eV     1   --> A              
     e(  4 -  4) =      6.15383  eV     1   --> A              
     e(  5 -  5) =      8.73622  eV     1   --> A              
     e(  6 -  6) =      8.77137  eV     1   --> A              
     e(  7 -  7) =      8.84623  eV     1   --> A              
     e(  8 -  8) =      9.76246  eV     1   --> A              
     e(  9 -  9) =     13.65535  eV     1   --> A              
     e( 10 - 10) =     13.82583  eV     1   --> A              
     e( 11 - 11) =     14.05235  eV     1   --> A              
     e( 12 - 12) =     17.21608  eV     1   --> A              

 **************************************************************************

 **************************************************************************

                    xk=(  -0.05000,   0.00000,   0.05000  )

     Band symmetry, C_1 (1)     point group:

     e(  1 -  1) =     -5.80112  eV     1   --> A              
     e(  2 -  2) =      5.94824  eV     1   --> A              
     e(  3 -  3) =      6.07514  eV     1   --> A              
     e(  4 -  4) =      6.16137  eV     1   --> A              
     e(  5 -  5) =      8.71874  eV     1   --> A              
     e(  6 -  6) =      8.73937  eV     1   --> A              
     e(  7 -  7) =      8.79492  eV     1   --> A              
     e(  8 -  8) =      9.63737  eV     1   --> A              
     e(  9 -  9) =     13.74619  eV     1   --> A              
     e( 10 - 10) =     13.84722  eV     1   --> A              
     e( 11 - 11) =     13.97661  eV     1   --> A              
     e( 12 - 12) =     17.24143  eV     1   --> A              

 **************************************************************************

 **************************************************************************

                    xk=(  -0.03333,   0.00000,   0.03333  )

     Band symmetry, C_1 (1)     point group:

     e(  1 -  1) =     -5.81333  eV     1   --> A              
     e(  2 -  2) =      6.06756  eV     1   --> A              
     e(  3 -  3) =      6.12781  eV     1   --> A              
     e(  4 -  4) =      6.16668  eV     1   --> A              
     e(  5 -  5) =      8.70624  eV     1   --> A              
     e(  6 -  6) =      8.71565  eV     1   --> A              
     e(  7 -  7) =      8.74597  eV     1   --> A              
     e(  8 -  8) =      9.54908  eV     1   --> A              
     e(  9 -  9) =     13.81649  eV     1   --> A              
     e( 10 - 10) =     13.86327  eV     1   --> A              
     e( 11 - 11) =     13.92152  eV     1   --> A              
     e( 12 - 12) =     17.26189  eV     1   --> A              

 **************************************************************************

 **************************************************************************

                    xk=(  -0.01667,   0.00000,   0.01667  )

     Band symmetry, C_1 (1)     point group:

     e(  1 -  1) =     -5.82066  eV     1   --> A              
     e(  2 -  2) =      6.14447  eV     1   --> A              
     e(  3 -  3) =      6.16011  eV     1   --> A              
     e(  4 -  4) =      6.16983  eV     1   --> A              
     e(  5 -  5) =      8.69875  eV     1   --> A              
     e(  6 -  6) =      8.70103  eV     1   --> A              
     e(  7 -  7) =      8.70968  eV     1   --> A              
     e(  8 -  8) =      9.49746  eV     1   --> A              
     e(  9 -  9) =     13.86119  eV     1   --> A              
     e( 10 - 10) =     13.87319  eV     1   --> A              
     e( 11 - 11) =     13.88806  eV     1   --> A              
     e( 12 - 12) =     17.27520  eV     1   --> A              

 **************************************************************************

 **************************************************************************

                    xk=(   0.00000,   0.00000,   0.00000  )

     point group C_3v (3m)  
     there are  3 classes
     the character table:

       E     2C3   3s_v 
A_1    1.00  1.00  1.00
A_2    1.00  1.00 -1.00
E      2.00 -1.00  0.00

     the symmetry operations in each class and the name of the first element:

     E        1
                                                                 
     2C3      2    3
                                                                 
     3s_v     4    5    6
                                                                 

     Band symmetry, C_3v (3m)   point group:

     e(  1 -  1) =     -5.82311  eV     1   --> A_1  L_1       
     e(  2 -  2) =      6.17074  eV     1   --> A_1  L_1       
     e(  3 -  4) =      6.17113  eV     2   --> E    L_3       
     e(  5 -  6) =      8.69609  eV     2   --> E    L_3       
     e(  7 -  7) =      8.69633  eV     1   --> A_1  L_1       
     e(  8 -  8) =      9.48060  eV     1   --> A_1  L_1       
     e(  9 - 10) =     13.87654  eV     2   --> E    L_3       
     e( 11 - 11) =     13.87684  eV     1   --> A_1  L_1       
     e( 12 - 12) =     17.27982  eV     1   -->   ?

 **************************************************************************

     BANDS        :      2.35s CPU      2.43s WALL


   This run was terminated on:  20:32:32  19Dec2024            

=------------------------------------------------------------------------------=
   JOB DONE.
=------------------------------------------------------------------------------=
