
     Program BANDS v.7.3.1 starts on 20Dec2024 at 14:38:32 

     This program is part of the open-source Quantum ESPRESSO suite
     for quantum simulation of materials; please cite
         "P. Giannozzi et al., J. Phys.:Condens. Matter 21 395502 (2009);
         "P. Giannozzi et al., J. Phys.:Condens. Matter 29 465901 (2017);
         "P. Giannozzi et al., J. Chem. Phys. 152 154105 (2020);
          URL http://www.quantum-espresso.org", 
     in publications or presentations arising from this work. More details at
     http://www.quantum-espresso.org/quote

     Serial version
     109203 MiB available memory on the printing compute node when the environment starts


     Reading xml data from directory:

     ./silicon.save/

     IMPORTANT: XC functional enforced from input :
     Exchange-correlation= PBESOL
                           (   1   4  10   8   0   0   0)
     Any further DFT definition will be discarded
     Please, verify this is what you really want


     G-vector sticks info
     --------------------
     sticks:   dense  smooth     PW     G-vecs:    dense   smooth      PW
     Sum         583     583    169                 9257     9257    1471

     Using Slab Decomposition


     Check: negative core charge=   -0.000003
     Reading collected, re-writing distributed wavefunctions
     high-symmetry point: -0.5000 0.5000 0.5000   x coordinate   0.0000
     high-symmetry point:  0.0000 0.0000 0.0000   x coordinate   0.8660
     high-symmetry point: -1.0000 0.0000 0.0000   x coordinate   1.8660
     high-symmetry point: -1.0000 0.2500 0.2500   x coordinate   2.2196
     high-symmetry point: -0.7500 0.0000 0.7500   x coordinate   2.2196
     high-symmetry point:  0.0000 0.0000 0.0000   x coordinate   3.2802

     Plottable bands (eV) written to file Si_bands.dat.gnu
     Bands written to file Si_bands.dat

 **************************************************************************

                    xk=(  -0.50000,   0.50000,   0.50000  )

     point group C_s (m)    
     there are  2 classes
     the character table:

       E     s    
A'     1.00  1.00
A''    1.00 -1.00

     the symmetry operations in each class and the name of the first element:

     E        1
                                                                 
     s        2
                                                                 

     Band symmetry, C_s (m)     point group:

     e(  1 -  1) =     -3.47138  eV     1   --> A'             
     e(  2 -  2) =     -0.84639  eV     1   --> A'             
     e(  3 -  3) =      4.96678  eV     1   --> A'             
     e(  4 -  4) =      4.96706  eV     1   --> A''            
     e(  5 -  5) =      7.63712  eV     1   --> A'             
     e(  6 -  6) =      9.45393  eV     1   --> A''            
     e(  7 -  7) =      9.45427  eV     1   --> A'             
     e(  8 -  8) =     13.69261  eV     1   --> A'             
     e(  9 - 10) =     16.69755  eV     2   --> A'             
     e(  9 - 10) =     16.69755  eV     2   --> A''            
     e( 11 - 11) =     17.38141  eV     1   --> A'             
     e( 12 - 12) =     17.45481  eV     1   --> A'             

 **************************************************************************

 **************************************************************************

                    xk=(  -0.48000,   0.48000,   0.48000  )

     Band symmetry, C_s (m)     point group:

     e(  1 -  1) =     -3.49470  eV     1   --> A'             
     e(  2 -  2) =     -0.81314  eV     1   --> A'             
     e(  3 -  3) =      4.96964  eV     1   --> A'             
     e(  4 -  4) =      4.96992  eV     1   --> A''            
     e(  5 -  5) =      7.64044  eV     1   --> A'             
     e(  6 -  6) =      9.45739  eV     1   --> A''            
     e(  7 -  7) =      9.45774  eV     1   --> A'             
     e(  8 -  8) =     13.69805  eV     1   --> A'             
     e(  9 - 10) =     16.51619  eV     2   --> A'             
     e(  9 - 10) =     16.51619  eV     2   --> A''            
     e( 11 - 11) =     17.29638  eV     1   --> A'             
     e( 12 - 12) =     17.64822  eV     1   --> A'             

 **************************************************************************

 **************************************************************************

                    xk=(  -0.46000,   0.46000,   0.46000  )

     Band symmetry, C_s (m)     point group:

     e(  1 -  1) =     -3.56126  eV     1   --> A'             
     e(  2 -  2) =     -0.71682  eV     1   --> A'             
     e(  3 -  3) =      4.97823  eV     1   --> A'             
     e(  4 -  4) =      4.97851  eV     1   --> A''            
     e(  5 -  5) =      7.65038  eV     1   --> A'             
     e(  6 -  6) =      9.46764  eV     1   --> A''            
     e(  7 -  7) =      9.46798  eV     1   --> A'             
     e(  8 -  8) =     13.71414  eV     1   --> A'             
     e(  9 - 10) =     16.17877  eV     2   --> A'             
     e(  9 - 10) =     16.17877  eV     2   --> A''            
     e( 11 - 11) =     17.07913  eV     1   --> A'             
     e( 12 - 12) =     18.02168  eV     1   -->   ?

 **************************************************************************

 **************************************************************************

                    xk=(  -0.44000,   0.44000,   0.44000  )

     Band symmetry, C_s (m)     point group:

     e(  1 -  1) =     -3.66254  eV     1   --> A'             
     e(  2 -  2) =     -0.56596  eV     1   --> A'             
     e(  3 -  3) =      4.99254  eV     1   --> A'             
     e(  4 -  4) =      4.99282  eV     1   --> A''            
     e(  5 -  5) =      7.66693  eV     1   --> A'             
     e(  6 -  6) =      9.48421  eV     1   --> A''            
     e(  7 -  7) =      9.48456  eV     1   --> A'             
     e(  8 -  8) =     13.74014  eV     1   --> A'             
     e(  9 -  9) =     15.81774  eV     1   --> A'             
     e( 10 - 10) =     15.81784  eV     1   --> A''            
     e( 11 - 11) =     16.79068  eV     1   --> A'             
     e( 12 - 12) =     18.44239  eV     1   -->   ?

 **************************************************************************

 **************************************************************************

                    xk=(  -0.42000,   0.42000,   0.42000  )

     Band symmetry, C_s (m)     point group:

     e(  1 -  1) =     -3.78852  eV     1   --> A'             
     e(  2 -  2) =     -0.37069  eV     1   --> A'             
     e(  3 -  3) =      5.01257  eV     1   --> A'             
     e(  4 -  4) =      5.01284  eV     1   --> A''            
     e(  5 -  5) =      7.69005  eV     1   --> A'             
     e(  6 -  6) =      9.50633  eV     1   --> A''            
     e(  7 -  7) =      9.50668  eV     1   --> A'             
     e(  8 -  8) =     13.77457  eV     1   --> A'             
     e(  9 -  9) =     15.46069  eV     1   --> A'             
     e( 10 - 10) =     15.46081  eV     1   --> A''            
     e( 11 - 11) =     16.46980  eV     1   --> A'             
     e( 12 - 12) =     18.88211  eV     1   -->   ?

 **************************************************************************

 **************************************************************************

                    xk=(  -0.40000,   0.40000,   0.40000  )

     Band symmetry, C_s (m)     point group:

     e(  1 -  1) =     -3.93018  eV     1   --> A'             
     e(  2 -  2) =     -0.14014  eV     1   --> A'             
     e(  3 -  3) =      5.03829  eV     1   --> A'             
     e(  4 -  4) =      5.03856  eV     1   --> A''            
     e(  5 -  5) =      7.71967  eV     1   --> A'             
     e(  6 -  6) =      9.53285  eV     1   --> A''            
     e(  7 -  7) =      9.53319  eV     1   --> A'             
     e(  8 -  8) =     13.81473  eV     1   --> A'             
     e(  9 -  9) =     15.11625  eV     1   --> A'             
     e( 10 - 10) =     15.11637  eV     1   --> A''            
     e( 11 - 11) =     16.13742  eV     1   --> A'             
     e( 12 - 12) =     19.33028  eV     1   -->   ?

 **************************************************************************

 **************************************************************************

                    xk=(  -0.38000,   0.38000,   0.38000  )

     Band symmetry, C_s (m)     point group:

     e(  1 -  1) =     -4.08046  eV     1   --> A'             
     e(  2 -  2) =      0.11852  eV     1   --> A'             
     e(  3 -  3) =      5.06967  eV     1   --> A'             
     e(  4 -  4) =      5.06995  eV     1   --> A''            
     e(  5 -  5) =      7.75571  eV     1   --> A'             
     e(  6 -  6) =      9.56219  eV     1   --> A''            
     e(  7 -  7) =      9.56253  eV     1   --> A'             
     e(  8 -  8) =     13.85570  eV     1   --> A'             
     e(  9 -  9) =     14.78885  eV     1   --> A'             
     e( 10 - 10) =     14.78898  eV     1   --> A''            
     e( 11 - 11) =     15.80723  eV     1   --> A'             
     e( 12 - 12) =     19.77895  eV     1   -->   ?

 **************************************************************************

 **************************************************************************

                    xk=(  -0.36000,   0.36000,   0.36000  )

     Band symmetry, C_s (m)     point group:

     e(  1 -  1) =     -4.23420  eV     1   --> A'             
     e(  2 -  2) =      0.39991  eV     1   --> A'             
     e(  3 -  3) =      5.10668  eV     1   --> A'             
     e(  4 -  4) =      5.10696  eV     1   --> A''            
     e(  5 -  5) =      7.79805  eV     1   --> A'             
     e(  6 -  6) =      9.59234  eV     1   --> A''            
     e(  7 -  7) =      9.59268  eV     1   --> A'             
     e(  8 -  8) =     13.88797  eV     1   --> A'             
     e(  9 -  9) =     14.48196  eV     1   --> A'             
     e( 10 - 10) =     14.48209  eV     1   --> A''            
     e( 11 - 11) =     15.49293  eV     1   --> A'             
     e( 12 - 12) =     20.01000  eV     1   --> A'             

 **************************************************************************

 **************************************************************************

                    xk=(  -0.34000,   0.34000,   0.34000  )

     Band symmetry, C_s (m)     point group:

     e(  1 -  1) =     -4.38769  eV     1   --> A'             
     e(  2 -  2) =      0.70011  eV     1   --> A'             
     e(  3 -  3) =      5.14924  eV     1   --> A'             
     e(  4 -  4) =      5.14952  eV     1   --> A''            
     e(  5 -  5) =      7.84653  eV     1   --> A'             
     e(  6 -  6) =      9.62075  eV     1   --> A''            
     e(  7 -  7) =      9.62109  eV     1   --> A'             
     e(  8 -  8) =     13.89300  eV     1   --> A'             
     e(  9 -  9) =     14.19886  eV     1   --> A'             
     e( 10 - 10) =     14.19899  eV     1   --> A''            
     e( 11 - 11) =     15.21488  eV     1   --> A'             
     e( 12 - 12) =     19.73798  eV     1   --> A'             

 **************************************************************************

 **************************************************************************

                    xk=(  -0.32000,   0.32000,   0.32000  )

     Band symmetry, C_s (m)     point group:

     e(  1 -  1) =     -4.53829  eV     1   --> A'             
     e(  2 -  2) =      1.01617  eV     1   --> A'             
     e(  3 -  3) =      5.19725  eV     1   --> A'             
     e(  4 -  4) =      5.19753  eV     1   --> A''            
     e(  5 -  5) =      7.90093  eV     1   --> A'             
     e(  6 -  6) =      9.64434  eV     1   --> A''            
     e(  7 -  7) =      9.64468  eV     1   --> A'             
     e(  8 -  8) =     13.83877  eV     1   --> A'             
     e(  9 -  9) =     13.94306  eV     1   --> A'             
     e( 10 - 10) =     13.94319  eV     1   --> A''            
     e( 11 - 11) =     15.00532  eV     1   --> A'             
     e( 12 - 12) =     19.36068  eV     1   --> A'             

 **************************************************************************

 **************************************************************************

                    xk=(  -0.30000,   0.30000,   0.30000  )

     Band symmetry, C_s (m)     point group:

     e(  1 -  1) =     -4.68409  eV     1   --> A'             
     e(  2 -  2) =      1.34585  eV     1   --> A'             
     e(  3 -  3) =      5.25056  eV     1   --> A'             
     e(  4 -  4) =      5.25084  eV     1   --> A''            
     e(  5 -  5) =      7.96098  eV     1   --> A'             
     e(  6 -  6) =      9.65960  eV     1   --> A''            
     e(  7 -  7) =      9.65993  eV     1   --> A'             
     e(  8 -  8) =     13.69328  eV     1   --> A'             
     e(  9 -  9) =     13.71830  eV     1   --> A'             
     e( 10 - 10) =     13.71842  eV     1   --> A''            
     e( 11 - 11) =     14.89534  eV     1   --> A'             
     e( 12 - 12) =     18.93266  eV     1   --> A'             

 **************************************************************************

 **************************************************************************

                    xk=(  -0.28000,   0.28000,   0.28000  )

     Band symmetry, C_s (m)     point group:

     e(  1 -  1) =     -4.82371  eV     1   --> A'             
     e(  2 -  2) =      1.68733  eV     1   --> A'             
     e(  3 -  3) =      5.30896  eV     1   --> A'             
     e(  4 -  4) =      5.30924  eV     1   --> A''            
     e(  5 -  5) =      8.02630  eV     1   --> A'             
     e(  6 -  6) =      9.66277  eV     1   --> A''            
     e(  7 -  7) =      9.66309  eV     1   --> A'             
     e(  8 -  8) =     13.45929  eV     1   --> A'             
     e(  9 -  9) =     13.52843  eV     1   --> A'             
     e( 10 - 10) =     13.52854  eV     1   --> A''            
     e( 11 - 11) =     14.87988  eV     1   --> A'             
     e( 12 - 12) =     18.48832  eV     1   --> A'             

 **************************************************************************

 **************************************************************************

                    xk=(  -0.26000,   0.26000,   0.26000  )

     Band symmetry, C_s (m)     point group:

     e(  1 -  1) =     -4.95612  eV     1   --> A'             
     e(  2 -  2) =      2.03903  eV     1   --> A'             
     e(  3 -  3) =      5.37218  eV     1   --> A'             
     e(  4 -  4) =      5.37246  eV     1   --> A''            
     e(  5 -  5) =      8.09642  eV     1   --> A'             
     e(  6 -  6) =      9.65029  eV     1   --> A''            
     e(  7 -  7) =      9.65060  eV     1   --> A'             
     e(  8 -  8) =     13.16788  eV     1   --> A'             
     e(  9 -  9) =     13.37702  eV     1   --> A'             
     e( 10 - 10) =     13.37712  eV     1   --> A''            
     e( 11 - 11) =     14.92387  eV     1   --> A'             
     e( 12 - 12) =     18.04937  eV     1   --> A'             

 **************************************************************************

 **************************************************************************

                    xk=(  -0.24000,   0.24000,   0.24000  )

     Band symmetry, C_s (m)     point group:

     e(  1 -  1) =     -5.08055  eV     1   --> A'             
     e(  2 -  2) =      2.39952  eV     1   --> A'             
     e(  3 -  3) =      5.43983  eV     1   --> A'             
     e(  4 -  4) =      5.44012  eV     1   --> A''            
     e(  5 -  5) =      8.17070  eV     1   --> A'             
     e(  6 -  6) =      9.61938  eV     1   --> A''            
     e(  7 -  7) =      9.61967  eV     1   --> A'             
     e(  8 -  8) =     12.84522  eV     1   --> A'             
     e(  9 - 10) =     13.26672  eV     2   --> A'             
     e(  9 - 10) =     13.26672  eV     2   --> A''            
     e( 11 - 11) =     14.99423  eV     1   --> A'             
     e( 12 - 12) =     17.63278  eV     1   --> A'             

 **************************************************************************

 **************************************************************************

                    xk=(  -0.22000,   0.22000,   0.22000  )

     Band symmetry, C_s (m)     point group:

     e(  1 -  1) =     -5.19640  eV     1   --> A'             
     e(  2 -  2) =      2.76736  eV     1   --> A'             
     e(  3 -  3) =      5.51142  eV     1   --> A'             
     e(  4 -  4) =      5.51171  eV     1   --> A''            
     e(  5 -  5) =      8.24832  eV     1   --> A'             
     e(  6 -  6) =      9.56870  eV     1   --> A''            
     e(  7 -  7) =      9.56898  eV     1   --> A'             
     e(  8 -  8) =     12.50570  eV     1   --> A'             
     e(  9 - 10) =     13.19867  eV     2   --> A'             
     e(  9 - 10) =     13.19867  eV     2   --> A''            
     e( 11 - 11) =     15.06483  eV     1   --> A'             
     e( 12 - 12) =     17.25667  eV     1   --> A'             

 **************************************************************************

 **************************************************************************

                    xk=(  -0.20000,   0.20000,   0.20000  )

     Band symmetry, C_s (m)     point group:

     e(  1 -  1) =     -5.30321  eV     1   --> A'             
     e(  2 -  2) =      3.14103  eV     1   --> A'             
     e(  3 -  3) =      5.58630  eV     1   --> A'             
     e(  4 -  4) =      5.58659  eV     1   --> A''            
     e(  5 -  5) =      8.32824  eV     1   --> A'             
     e(  6 -  6) =      9.49881  eV     1   --> A''            
     e(  7 -  7) =      9.49907  eV     1   --> A'             
     e(  8 -  8) =     12.15670  eV     1   --> A'             
     e(  9 - 10) =     13.17200  eV     2   --> A'             
     e(  9 - 10) =     13.17200  eV     2   --> A''            
     e( 11 - 11) =     15.10866  eV     1   --> A'             
     e( 12 - 12) =     16.94507  eV     1   --> A'             

 **************************************************************************

 **************************************************************************

                    xk=(  -0.18000,   0.18000,   0.18000  )

     Band symmetry, C_s (m)     point group:

     e(  1 -  1) =     -5.40064  eV     1   --> A'             
     e(  2 -  2) =      3.51875  eV     1   --> A'             
     e(  3 -  3) =      5.66360  eV     1   --> A'             
     e(  4 -  4) =      5.66389  eV     1   --> A''            
     e(  5 -  5) =      8.40907  eV     1   --> A'             
     e(  6 -  6) =      9.41216  eV     1   --> A''            
     e(  7 -  7) =      9.41241  eV     1   --> A'             
     e(  8 -  8) =     11.80250  eV     1   --> A'             
     e(  9 - 10) =     13.18375  eV     2   --> A'             
     e(  9 - 10) =     13.18375  eV     2   --> A''            
     e( 11 - 11) =     15.09423  eV     1   --> A'             
     e( 12 - 12) =     16.72869  eV     1   --> A'             

 **************************************************************************

 **************************************************************************

                    xk=(  -0.16000,   0.16000,   0.16000  )

     Band symmetry, C_s (m)     point group:

     e(  1 -  1) =     -5.48840  eV     1   --> A'             
     e(  2 -  2) =      3.89836  eV     1   --> A'             
     e(  3 -  3) =      5.74221  eV     1   --> A'             
     e(  4 -  4) =      5.74251  eV     1   --> A''            
     e(  5 -  5) =      8.48903  eV     1   --> A'             
     e(  6 -  6) =      9.31279  eV     1   --> A''            
     e(  7 -  7) =      9.31303  eV     1   --> A'             
     e(  8 -  8) =     11.44632  eV     1   --> A'             
     e(  9 - 10) =     13.22916  eV     2   --> A'             
     e(  9 - 10) =     13.22916  eV     2   --> A''            
     e( 11 - 11) =     14.99935  eV     1   --> A'             
     e( 12 - 12) =     16.62966  eV     1   --> A'             

 **************************************************************************

 **************************************************************************

                    xk=(  -0.14000,   0.14000,   0.14000  )

     Band symmetry, C_s (m)     point group:

     e(  1 -  1) =     -5.56625  eV     1   --> A'             
     e(  2 -  2) =      4.27703  eV     1   --> A'             
     e(  3 -  3) =      5.82072  eV     1   --> A'             
     e(  4 -  4) =      5.82103  eV     1   --> A''            
     e(  5 -  5) =      8.56572  eV     1   --> A'             
     e(  6 -  6) =      9.20576  eV     1   --> A''            
     e(  7 -  7) =      9.20599  eV     1   --> A'             
     e(  8 -  8) =     11.09163  eV     1   --> A'             
     e(  9 - 10) =     13.30214  eV     2   --> A'             
     e(  9 - 10) =     13.30214  eV     2   --> A''            
     e( 11 - 11) =     14.83431  eV     1   --> A'             
     e( 12 - 12) =     16.63750  eV     1   --> A'             

 **************************************************************************

 **************************************************************************

                    xk=(  -0.12000,   0.12000,   0.12000  )

     Band symmetry, C_s (m)     point group:

     e(  1 -  1) =     -5.63404  eV     1   --> A'             
     e(  2 -  2) =      4.65088  eV     1   --> A'             
     e(  3 -  3) =      5.89732  eV     1   --> A'             
     e(  4 -  4) =      5.89764  eV     1   --> A''            
     e(  5 -  5) =      8.63595  eV     1   --> A'             
     e(  6 -  6) =      9.09659  eV     1   --> A''            
     e(  7 -  7) =      9.09681  eV     1   --> A'             
     e(  8 -  8) =     10.74321  eV     1   --> A'             
     e(  9 - 10) =     13.39559  eV     2   --> A'             
     e(  9 - 10) =     13.39559  eV     2   --> A''            
     e( 11 - 11) =     14.63371  eV     1   --> A'             
     e( 12 - 12) =     16.71680  eV     1   --> A'             

 **************************************************************************

 **************************************************************************

                    xk=(  -0.10000,   0.10000,   0.10000  )

     Band symmetry, C_s (m)     point group:

     e(  1 -  1) =     -5.69160  eV     1   --> A'             
     e(  2 -  2) =      5.01428  eV     1   --> A'             
     e(  3 -  3) =      5.96980  eV     1   --> A'             
     e(  4 -  4) =      5.97012  eV     1   --> A''            
     e(  5 -  5) =      8.69532  eV     1   --> A'             
     e(  6 -  6) =      8.99092  eV     1   --> A''            
     e(  7 -  7) =      8.99114  eV     1   --> A'             
     e(  8 -  8) =     10.40844  eV     1   --> A'             
     e(  9 - 10) =     13.50157  eV     2   --> A'             
     e(  9 - 10) =     13.50157  eV     2   --> A''            
     e( 11 - 11) =     14.42979  eV     1   --> A'             
     e( 12 - 12) =     16.83342  eV     1   --> A'             

 **************************************************************************

 **************************************************************************

                    xk=(  -0.08000,   0.08000,   0.08000  )

     Band symmetry, C_s (m)     point group:

     e(  1 -  1) =     -5.73884  eV     1   --> A'             
     e(  2 -  2) =      5.35870  eV     1   --> A'             
     e(  3 -  3) =      6.03549  eV     1   --> A'             
     e(  4 -  4) =      6.03582  eV     1   --> A''            
     e(  5 -  5) =      8.73772  eV     1   --> A'             
     e(  6 -  6) =      8.89433  eV     1   --> A''            
     e(  7 -  7) =      8.89454  eV     1   --> A'             
     e(  8 -  8) =     10.09911  eV     1   --> A'             
     e(  9 - 10) =     13.61109  eV     2   --> A'             
     e(  9 - 10) =     13.61109  eV     2   --> A''            
     e( 11 - 11) =     14.24375  eV     1   --> A'             
     e( 12 - 12) =     16.96264  eV     1   --> A'             

 **************************************************************************

 **************************************************************************

                    xk=(  -0.06000,   0.06000,   0.06000  )

     Band symmetry, C_s (m)     point group:

     e(  1 -  1) =     -5.77566  eV     1   --> A'             
     e(  2 -  2) =      5.67083  eV     1   --> A'             
     e(  3 -  3) =      6.09138  eV     1   --> A'             
     e(  4 -  4) =      6.09172  eV     1   --> A''            
     e(  5 -  5) =      8.75543  eV     1   --> A'             
     e(  6 -  6) =      8.81213  eV     1   --> A''            
     e(  7 -  7) =      8.81234  eV     1   --> A'             
     e(  8 -  8) =      9.83340  eV     1   --> A'             
     e(  9 - 10) =     13.71410  eV     2   --> A'             
     e(  9 - 10) =     13.71410  eV     2   --> A''            
     e( 11 - 11) =     14.08861  eV     1   --> A'             
     e( 12 - 12) =     17.08606  eV     1   --> A'             

 **************************************************************************

 **************************************************************************

                    xk=(  -0.04000,   0.04000,   0.04000  )

     Band symmetry, C_s (m)     point group:

     e(  1 -  1) =     -5.80200  eV     1   --> A'             
     e(  2 -  2) =      5.93006  eV     1   --> A'             
     e(  3 -  3) =      6.13433  eV     1   --> A'             
     e(  4 -  4) =      6.13468  eV     1   --> A''            
     e(  5 -  5) =      8.74345  eV     1   --> A'             
     e(  6 -  6) =      8.74920  eV     1   --> A''            
     e(  7 -  7) =      8.74942  eV     1   --> A'             
     e(  8 -  8) =      9.63428  eV     1   --> A'             
     e(  9 - 10) =     13.79952  eV     2   --> A'             
     e(  9 - 10) =     13.79952  eV     2   --> A''            
     e( 11 - 11) =     13.97262  eV     1   --> A'             
     e( 12 - 12) =     17.18828  eV     1   --> A'             

 **************************************************************************

 **************************************************************************

                    xk=(  -0.02000,   0.02000,   0.02000  )

     Band symmetry, C_s (m)     point group:

     e(  1 -  1) =     -5.81783  eV     1   --> A'             
     e(  2 -  2) =      6.10719  eV     1   --> A'             
     e(  3 -  3) =      6.16148  eV     1   --> A'             
     e(  4 -  4) =      6.16183  eV     1   --> A''            
     e(  5 -  5) =      8.70961  eV     1   --> A''            
     e(  6 -  6) =      8.70982  eV     1   --> A'             
     e(  7 -  7) =      8.71293  eV     1   --> A'             
     e(  8 -  8) =      9.51754  eV     1   --> A'             
     e(  9 - 10) =     13.85648  eV     2   --> A'             
     e(  9 - 10) =     13.85648  eV     2   --> A''            
     e( 11 - 11) =     13.90103  eV     1   --> A'             
     e( 12 - 12) =     17.25606  eV     1   --> A'             

 **************************************************************************

 **************************************************************************

                    xk=(   0.00000,   0.00000,   0.00000  )

     point group C_3v (3m)  
     there are  3 classes
     the character table:

       E     2C3   3s_v 
A_1    1.00  1.00  1.00
A_2    1.00  1.00 -1.00
E      2.00 -1.00  0.00

     the symmetry operations in each class and the name of the first element:

     E        1
                                                                 
     2C3      2    3
                                                                 
     3s_v     4    5    6
                                                                 

     Band symmetry, C_3v (3m)   point group:

     e(  1 -  1) =     -5.82311  eV     1   --> A_1  L_1       
     e(  2 -  2) =      6.17074  eV     1   --> A_1  L_1       
     e(  3 -  4) =      6.17113  eV     2   --> E    L_3       
     e(  5 -  6) =      8.69609  eV     2   --> E    L_3       
     e(  7 -  7) =      8.69633  eV     1   --> A_1  L_1       
     e(  8 -  8) =      9.48060  eV     1   --> A_1  L_1       
     e(  9 - 10) =     13.87654  eV     2   --> E    L_3       
     e( 11 - 11) =     13.87684  eV     1   --> A_1  L_1       
     e( 12 - 12) =     17.27982  eV     1   -->   ?

 **************************************************************************

 **************************************************************************

                    xk=(  -0.01667,   0.00000,   0.00000  )

     point group C_s (m)    
     there are  2 classes
     the character table:

       E     s    
A'     1.00  1.00
A''    1.00 -1.00

     the symmetry operations in each class and the name of the first element:

     E        1
                                                                 
     s        2
                                                                 

     Band symmetry, C_s (m)     point group:

     e(  1 -  1) =     -5.82188  eV     1   --> A'             
     e(  2 -  2) =      6.16248  eV     1   --> A'             
     e(  3 -  3) =      6.16544  eV     1   --> A'             
     e(  4 -  4) =      6.16569  eV     1   --> A''            
     e(  5 -  5) =      8.69295  eV     1   --> A'             
     e(  6 -  6) =      8.70302  eV     1   --> A''            
     e(  7 -  7) =      8.70319  eV     1   --> A'             
     e(  8 -  8) =      9.48896  eV     1   --> A'             
     e(  9 -  9) =     13.86582  eV     1   --> A'             
     e( 10 - 10) =     13.87789  eV     1   --> A''            
     e( 11 - 11) =     13.88245  eV     1   --> A'             
     e( 12 - 12) =     17.28204  eV     1   -->   ?

 **************************************************************************

 **************************************************************************

                    xk=(  -0.03333,   0.00000,   0.00000  )

     Band symmetry, C_s (m)     point group:

     e(  1 -  1) =     -5.81822  eV     1   --> A'             
     e(  2 -  2) =      6.13723  eV     1   --> A'             
     e(  3 -  3) =      6.14928  eV     1   --> A'             
     e(  4 -  4) =      6.14954  eV     1   --> A''            
     e(  5 -  5) =      8.68334  eV     1   --> A'             
     e(  6 -  6) =      8.72364  eV     1   --> A''            
     e(  7 -  7) =      8.72380  eV     1   --> A'             
     e(  8 -  8) =      9.51371  eV     1   --> A'             
     e(  9 -  9) =     13.83409  eV     1   --> A'             
     e( 10 - 10) =     13.88193  eV     1   --> A''            
     e( 11 - 11) =     13.89925  eV     1   --> A'             
     e( 12 - 12) =     17.28837  eV     1   -->   ?

 **************************************************************************

 **************************************************************************

                    xk=(  -0.05000,   0.00000,   0.00000  )

     Band symmetry, C_s (m)     point group:

     e(  1 -  1) =     -5.81211  eV     1   --> A'             
     e(  2 -  2) =      6.09599  eV     1   --> A'             
     e(  3 -  3) =      6.12296  eV     1   --> A'             
     e(  4 -  4) =      6.12321  eV     1   --> A''            
     e(  5 -  5) =      8.66749  eV     1   --> A'             
     e(  6 -  6) =      8.75741  eV     1   --> A''            
     e(  7 -  7) =      8.75757  eV     1   --> A'             
     e(  8 -  8) =      9.55398  eV     1   --> A'             
     e(  9 -  9) =     13.78269  eV     1   --> A'             
     e( 10 - 10) =     13.88865  eV     1   --> A''            
     e( 11 - 11) =     13.92709  eV     1   --> A'             
     e( 12 - 12) =     17.29912  eV     1   -->   ?

 **************************************************************************

 **************************************************************************

                    xk=(  -0.06667,   0.00000,   0.00000  )

     Band symmetry, C_s (m)     point group:

     e(  1 -  1) =     -5.80356  eV     1   --> A'             
     e(  2 -  2) =      6.03994  eV     1   --> A'             
     e(  3 -  3) =      6.08727  eV     1   --> A'             
     e(  4 -  4) =      6.08752  eV     1   --> A''            
     e(  5 -  5) =      8.64562  eV     1   --> A'             
     e(  6 -  6) =      8.80353  eV     1   --> A''            
     e(  7 -  7) =      8.80368  eV     1   --> A'             
     e(  8 -  8) =      9.60840  eV     1   --> A'             
     e(  9 -  9) =     13.71362  eV     1   --> A'             
     e( 10 - 10) =     13.89807  eV     1   --> A''            
     e( 11 - 11) =     13.96573  eV     1   --> A'             
     e( 12 - 12) =     17.31406  eV     1   -->   ?

 **************************************************************************

 **************************************************************************

                    xk=(  -0.08333,   0.00000,   0.00000  )

     Band symmetry, C_s (m)     point group:

     e(  1 -  1) =     -5.79257  eV     1   --> A'             
     e(  2 -  2) =      5.97049  eV     1   --> A'             
     e(  3 -  3) =      6.04320  eV     1   --> A'             
     e(  4 -  4) =      6.04344  eV     1   --> A''            
     e(  5 -  5) =      8.61802  eV     1   --> A'             
     e(  6 -  6) =      8.86100  eV     1   --> A''            
     e(  7 -  7) =      8.86114  eV     1   --> A'             
     e(  8 -  8) =      9.67525  eV     1   --> A'             
     e(  9 -  9) =     13.62934  eV     1   --> A'             
     e( 10 - 10) =     13.91019  eV     1   --> A''            
     e( 11 - 11) =     14.01488  eV     1   --> A'             
     e( 12 - 12) =     17.33341  eV     1   -->   ?

 **************************************************************************

 **************************************************************************

                    xk=(  -0.10000,   0.00000,   0.00000  )

     Band symmetry, C_s (m)     point group:

     e(  1 -  1) =     -5.77914  eV     1   --> A'             
     e(  2 -  2) =      5.88918  eV     1   --> A'             
     e(  3 -  3) =      5.99182  eV     1   --> A'             
     e(  4 -  4) =      5.99205  eV     1   --> A''            
     e(  5 -  5) =      8.58505  eV     1   --> A'             
     e(  6 -  6) =      8.92874  eV     1   --> A''            
     e(  7 -  7) =      8.92887  eV     1   --> A'             
     e(  8 -  8) =      9.75258  eV     1   --> A'             
     e(  9 -  9) =     13.53263  eV     1   --> A'             
     e( 10 - 10) =     13.92499  eV     1   --> A''            
     e( 11 - 11) =     14.07415  eV     1   --> A'             
     e( 12 - 12) =     17.35675  eV     1   -->   ?

 **************************************************************************

 **************************************************************************

                    xk=(  -0.11667,   0.00000,   0.00000  )

     Band symmetry, C_s (m)     point group:

     e(  1 -  1) =     -5.76327  eV     1   --> A'             
     e(  2 -  2) =      5.79751  eV     1   --> A'             
     e(  3 -  3) =      5.93420  eV     1   --> A'             
     e(  4 -  4) =      5.93443  eV     1   --> A''            
     e(  5 -  5) =      8.54713  eV     1   --> A'             
     e(  6 -  6) =      9.00566  eV     1   --> A''            
     e(  7 -  7) =      9.00578  eV     1   --> A'             
     e(  8 -  8) =      9.83829  eV     1   --> A'             
     e(  9 -  9) =     13.42634  eV     1   --> A'             
     e( 10 - 10) =     13.94249  eV     1   --> A''            
     e( 11 - 11) =     14.14313  eV     1   --> A'             
     e( 12 - 12) =     17.38451  eV     1   -->   ?

 **************************************************************************

 **************************************************************************

                    xk=(  -0.13333,   0.00000,   0.00000  )

     Band symmetry, C_s (m)     point group:

     e(  1 -  1) =     -5.74497  eV     1   --> A'             
     e(  2 -  2) =      5.69692  eV     1   --> A'             
     e(  3 -  3) =      5.87140  eV     1   --> A'             
     e(  4 -  4) =      5.87161  eV     1   --> A''            
     e(  5 -  5) =      8.50470  eV     1   --> A'             
     e(  6 -  6) =      9.09071  eV     1   --> A''            
     e(  7 -  7) =      9.09083  eV     1   --> A'             
     e(  8 -  8) =      9.93017  eV     1   --> A'             
     e(  9 -  9) =     13.31337  eV     1   --> A'             
     e( 10 - 10) =     13.96267  eV     1   --> A''            
     e( 11 - 11) =     14.22136  eV     1   --> A'             
     e( 12 - 12) =     17.41652  eV     1   -->   ?

 **************************************************************************

 **************************************************************************

                    xk=(  -0.15000,   0.00000,   0.00000  )

     Band symmetry, C_s (m)     point group:

     e(  1 -  1) =     -5.72424  eV     1   --> A'             
     e(  2 -  2) =      5.58872  eV     1   --> A'             
     e(  3 -  3) =      5.80433  eV     1   --> A'             
     e(  4 -  4) =      5.80454  eV     1   --> A''            
     e(  5 -  5) =      8.45821  eV     1   --> A'             
     e(  6 -  6) =      9.18295  eV     1   --> A''            
     e(  7 -  7) =      9.18306  eV     1   --> A'             
     e(  8 -  8) =     10.02589  eV     1   --> A'             
     e(  9 -  9) =     13.19672  eV     1   --> A'             
     e( 10 - 10) =     13.98555  eV     1   --> A''            
     e( 11 - 11) =     14.30837  eV     1   --> A'             
     e( 12 - 12) =     17.45276  eV     1   -->   ?

 **************************************************************************

 **************************************************************************

                    xk=(  -0.16667,   0.00000,   0.00000  )

     Band symmetry, C_s (m)     point group:

     e(  1 -  1) =     -5.70108  eV     1   --> A'             
     e(  2 -  2) =      5.47403  eV     1   --> A'             
     e(  3 -  3) =      5.73387  eV     1   --> A'             
     e(  4 -  4) =      5.73407  eV     1   --> A''            
     e(  5 -  5) =      8.40812  eV     1   --> A'             
     e(  6 -  7) =      9.28150  eV     2   --> A'             
     e(  6 -  7) =      9.28150  eV     2   --> A''            
     e(  8 -  8) =     10.12290  eV     1   --> A'             
     e(  9 -  9) =     13.07947  eV     1   --> A'             
     e( 10 - 10) =     14.01112  eV     1   --> A''            
     e( 11 - 11) =     14.40366  eV     1   --> A'             
     e( 12 - 12) =     17.49323  eV     1   -->   ?

 **************************************************************************

 **************************************************************************

                    xk=(  -0.18333,   0.00000,   0.00000  )

     Band symmetry, C_s (m)     point group:

     e(  1 -  1) =     -5.67549  eV     1   --> A'             
     e(  2 -  2) =      5.35386  eV     1   --> A'             
     e(  3 -  3) =      5.66074  eV     1   --> A'             
     e(  4 -  4) =      5.66093  eV     1   --> A''            
     e(  5 -  5) =      8.35490  eV     1   --> A'             
     e(  6 -  7) =      9.38562  eV     2   --> A'             
     e(  6 -  7) =      9.38562  eV     2   --> A''            
     e(  8 -  8) =     10.21837  eV     1   --> A'             
     e(  9 -  9) =     12.96496  eV     1   --> A'             
     e( 10 - 10) =     14.03937  eV     1   --> A''            
     e( 11 - 11) =     14.50674  eV     1   --> A'             
     e( 12 - 12) =     17.53791  eV     1   -->   ?

 **************************************************************************

 **************************************************************************

                    xk=(  -0.20000,   0.00000,   0.00000  )

     Band symmetry, C_s (m)     point group:

     e(  1 -  1) =     -5.64748  eV     1   --> A'             
     e(  2 -  2) =      5.22905  eV     1   --> A'             
     e(  3 -  3) =      5.58558  eV     1   --> A'             
     e(  4 -  4) =      5.58577  eV     1   --> A''            
     e(  5 -  5) =      8.29900  eV     1   --> A'             
     e(  6 -  7) =      9.49464  eV     2   --> A'             
     e(  6 -  7) =      9.49464  eV     2   --> A''            
     e(  8 -  8) =     10.30900  eV     1   --> A'             
     e(  9 -  9) =     12.85689  eV     1   --> A'             
     e( 10 - 10) =     14.07031  eV     1   --> A''            
     e( 11 - 11) =     14.61714  eV     1   --> A'             
     e( 12 - 12) =     17.58677  eV     1   -->   ?

 **************************************************************************

 **************************************************************************

                    xk=(  -0.21667,   0.00000,   0.00000  )

     Band symmetry, C_s (m)     point group:

     e(  1 -  1) =     -5.61706  eV     1   --> A'             
     e(  2 -  2) =      5.10030  eV     1   --> A'             
     e(  3 -  3) =      5.50896  eV     1   --> A'             
     e(  4 -  4) =      5.50914  eV     1   --> A''            
     e(  5 -  5) =      8.24085  eV     1   --> A'             
     e(  6 -  7) =      9.60799  eV     2   --> A'             
     e(  6 -  7) =      9.60799  eV     2   --> A''            
     e(  8 -  8) =     10.39096  eV     1   --> A'             
     e(  9 -  9) =     12.75947  eV     1   --> A'             
     e( 10 - 10) =     14.10394  eV     1   --> A''            
     e( 11 - 11) =     14.73439  eV     1   --> A'             
     e( 12 - 12) =     17.63978  eV     1   -->   ?

 **************************************************************************

 **************************************************************************

                    xk=(  -0.23333,   0.00000,   0.00000  )

     Band symmetry, C_s (m)     point group:

     e(  1 -  1) =     -5.58422  eV     1   --> A'             
     e(  2 -  2) =      4.96823  eV     1   --> A'             
     e(  3 -  3) =      5.43135  eV     1   --> A'             
     e(  4 -  4) =      5.43152  eV     1   --> A''            
     e(  5 -  5) =      8.18086  eV     1   --> A'             
     e(  6 -  7) =      9.72519  eV     2   --> A'             
     e(  6 -  7) =      9.72519  eV     2   --> A''            
     e(  8 -  8) =     10.45982  eV     1   --> A'             
     e(  9 -  9) =     12.67745  eV     1   --> A'             
     e( 10 - 10) =     14.14026  eV     1   --> A''            
     e( 11 - 11) =     14.85804  eV     1   --> A'             
     e( 12 - 12) =     17.69693  eV     1   -->   ?

 **************************************************************************

 **************************************************************************

                    xk=(  -0.25000,   0.00000,   0.00000  )

     Band symmetry, C_s (m)     point group:

     e(  1 -  1) =     -5.54897  eV     1   --> A'             
     e(  2 -  2) =      4.83333  eV     1   --> A'             
     e(  3 -  3) =      5.35315  eV     1   --> A'             
     e(  4 -  4) =      5.35331  eV     1   --> A''            
     e(  5 -  5) =      8.11940  eV     1   --> A'             
     e(  6 -  7) =      9.84581  eV     2   --> A'             
     e(  6 -  7) =      9.84581  eV     2   --> A''            
     e(  8 -  8) =     10.51077  eV     1   --> A'             
     e(  9 -  9) =     12.61591  eV     1   --> A'             
     e( 10 - 10) =     14.17927  eV     1   --> A''            
     e( 11 - 11) =     14.98767  eV     1   --> A'             
     e( 12 - 12) =     17.75815  eV     1   --> A''            

 **************************************************************************

 **************************************************************************

                    xk=(  -0.26667,   0.00000,   0.00000  )

     Band symmetry, C_s (m)     point group:

     e(  1 -  1) =     -5.51133  eV     1   --> A'             
     e(  2 -  2) =      4.69604  eV     1   --> A'             
     e(  3 -  3) =      5.27470  eV     1   --> A'             
     e(  4 -  4) =      5.27486  eV     1   --> A''            
     e(  5 -  5) =      8.05685  eV     1   --> A'             
     e(  6 -  7) =      9.96948  eV     2   --> A'             
     e(  6 -  7) =      9.96948  eV     2   --> A''            
     e(  8 -  8) =     10.53929  eV     1   --> A'             
     e(  9 -  9) =     12.57960  eV     1   --> A'             
     e( 10 - 10) =     14.22096  eV     1   --> A''            
     e( 11 - 11) =     15.12285  eV     1   --> A'             
     e( 12 - 12) =     17.82341  eV     1   -->   ?

 **************************************************************************

 **************************************************************************

                    xk=(  -0.28333,   0.00000,   0.00000  )

     Band symmetry, C_s (m)     point group:

     e(  1 -  1) =     -5.47129  eV     1   --> A'             
     e(  2 -  2) =      4.55670  eV     1   --> A'             
     e(  3 -  3) =      5.19630  eV     1   --> A'             
     e(  4 -  4) =      5.19646  eV     1   --> A''            
     e(  5 -  5) =      7.99354  eV     1   --> A'             
     e(  6 -  7) =     10.09589  eV     2   --> A'             
     e(  6 -  7) =     10.09589  eV     2   --> A''            
     e(  8 -  8) =     10.54209  eV     1   --> A'             
     e(  9 -  9) =     12.57203  eV     1   --> A'             
     e( 10 - 10) =     14.26533  eV     1   --> A''            
     e( 11 - 11) =     15.26320  eV     1   --> A'             
     e( 12 - 12) =     17.89262  eV     1   -->   ?

 **************************************************************************

 **************************************************************************

                    xk=(  -0.30000,   0.00000,   0.00000  )

     Band symmetry, C_s (m)     point group:

     e(  1 -  1) =     -5.42886  eV     1   --> A'             
     e(  2 -  2) =      4.41563  eV     1   --> A'             
     e(  3 -  3) =      5.11822  eV     1   --> A'             
     e(  4 -  4) =      5.11837  eV     1   --> A''            
     e(  5 -  5) =      7.92976  eV     1   --> A'             
     e(  6 -  7) =     10.22476  eV     2   --> A'             
     e(  6 -  7) =     10.22476  eV     2   --> A''            
     e(  8 -  8) =     10.51810  eV     1   --> A'             
     e(  9 -  9) =     12.59444  eV     1   --> A'             
     e( 10 - 10) =     14.31238  eV     1   --> A''            
     e( 11 - 11) =     15.40836  eV     1   --> A'             
     e( 12 - 12) =     17.96574  eV     1   -->   ?

 **************************************************************************

 **************************************************************************

                    xk=(  -0.31667,   0.00000,   0.00000  )

     Band symmetry, C_s (m)     point group:

     e(  1 -  1) =     -5.38404  eV     1   --> A'             
     e(  2 -  2) =      4.27306  eV     1   --> A'             
     e(  3 -  3) =      5.04066  eV     1   --> A'             
     e(  4 -  4) =      5.04080  eV     1   --> A''            
     e(  5 -  5) =      7.86581  eV     1   --> A'             
     e(  6 -  7) =     10.35587  eV     2   --> A'             
     e(  6 -  7) =     10.35587  eV     2   --> A''            
     e(  8 -  8) =     10.46872  eV     1   --> A'             
     e(  9 -  9) =     12.64555  eV     1   --> A'             
     e( 10 - 10) =     14.36212  eV     1   --> A''            
     e( 11 - 11) =     15.55795  eV     1   --> A'             
     e( 12 - 12) =     18.04264  eV     1   -->   ?

 **************************************************************************

 **************************************************************************

                    xk=(  -0.33333,   0.00000,   0.00000  )

     Band symmetry, C_s (m)     point group:

     e(  1 -  1) =     -5.33686  eV     1   --> A'             
     e(  2 -  2) =      4.12922  eV     1   --> A'             
     e(  3 -  3) =      4.96381  eV     1   --> A'             
     e(  4 -  4) =      4.96395  eV     1   --> A''            
     e(  5 -  5) =      7.80194  eV     1   --> A'             
     e(  6 -  6) =     10.39732  eV     1   --> A'             
     e(  7 -  8) =     10.48900  eV     2   --> A'             
     e(  7 -  8) =     10.48900  eV     2   --> A''            
     e(  9 -  9) =     12.72216  eV     1   --> A'             
     e( 10 - 10) =     14.41454  eV     1   --> A''            
     e( 11 - 11) =     15.71165  eV     1   --> A'             
     e( 12 - 12) =     18.12324  eV     1   -->   ?

 **************************************************************************

 **************************************************************************

                    xk=(  -0.35000,   0.00000,   0.00000  )

     Band symmetry, C_s (m)     point group:

     e(  1 -  1) =     -5.28730  eV     1   --> A'             
     e(  2 -  2) =      3.98429  eV     1   --> A'             
     e(  3 -  3) =      4.88785  eV     1   --> A'             
     e(  4 -  4) =      4.88799  eV     1   --> A''            
     e(  5 -  5) =      7.73839  eV     1   --> A'             
     e(  6 -  6) =     10.30810  eV     1   --> A'             
     e(  7 -  8) =     10.62397  eV     2   --> A'             
     e(  7 -  8) =     10.62397  eV     2   --> A''            
     e(  9 -  9) =     12.82015  eV     1   --> A'             
     e( 10 - 10) =     14.46963  eV     1   --> A''            
     e( 11 - 11) =     15.86911  eV     1   --> A'             
     e( 12 - 12) =     18.20737  eV     1   -->   ?

 **************************************************************************

 **************************************************************************

                    xk=(  -0.36667,   0.00000,   0.00000  )

     Band symmetry, C_s (m)     point group:

     e(  1 -  1) =     -5.23539  eV     1   --> A'             
     e(  2 -  2) =      3.83842  eV     1   --> A'             
     e(  3 -  3) =      4.81291  eV     1   --> A'             
     e(  4 -  4) =      4.81304  eV     1   --> A''            
     e(  5 -  5) =      7.67537  eV     1   --> A'             
     e(  6 -  6) =     10.20522  eV     1   --> A'             
     e(  7 -  8) =     10.76061  eV     2   --> A'             
     e(  7 -  8) =     10.76061  eV     2   --> A''            
     e(  9 -  9) =     12.93545  eV     1   --> A'             
     e( 10 - 10) =     14.52741  eV     1   --> A''            
     e( 11 - 11) =     16.03002  eV     1   --> A'             
     e( 12 - 12) =     18.29488  eV     1   -->   ?

 **************************************************************************

 **************************************************************************

                    xk=(  -0.38333,   0.00000,   0.00000  )

     Band symmetry, C_s (m)     point group:

     e(  1 -  1) =     -5.18112  eV     1   --> A'             
     e(  2 -  2) =      3.69175  eV     1   --> A'             
     e(  3 -  3) =      4.73911  eV     1   --> A'             
     e(  4 -  4) =      4.73925  eV     1   --> A''            
     e(  5 -  5) =      7.61309  eV     1   --> A'             
     e(  6 -  6) =     10.09231  eV     1   --> A'             
     e(  7 -  8) =     10.89880  eV     2   --> A'             
     e(  7 -  8) =     10.89880  eV     2   --> A''            
     e(  9 -  9) =     13.06448  eV     1   --> A'             
     e( 10 - 10) =     14.58783  eV     1   --> A''            
     e( 11 - 11) =     16.19405  eV     1   --> A'             
     e( 12 - 12) =     18.38557  eV     1   -->   ?

 **************************************************************************

 **************************************************************************

                    xk=(  -0.40000,   0.00000,   0.00000  )

     Band symmetry, C_s (m)     point group:

     e(  1 -  1) =     -5.12452  eV     1   --> A'             
     e(  2 -  2) =      3.54439  eV     1   --> A'             
     e(  3 -  3) =      4.66658  eV     1   --> A'             
     e(  4 -  4) =      4.66671  eV     1   --> A''            
     e(  5 -  5) =      7.55173  eV     1   --> A'             
     e(  6 -  6) =      9.97234  eV     1   --> A'             
     e(  7 -  8) =     11.03840  eV     2   --> A'             
     e(  7 -  8) =     11.03840  eV     2   --> A''            
     e(  9 -  9) =     13.20434  eV     1   --> A'             
     e( 10 - 10) =     14.65095  eV     1   --> A''            
     e( 11 - 11) =     16.36089  eV     1   --> A'             
     e( 12 - 12) =     18.47915  eV     1   -->   ?

 **************************************************************************

 **************************************************************************

                    xk=(  -0.41667,   0.00000,   0.00000  )

     Band symmetry, C_s (m)     point group:

     e(  1 -  1) =     -5.06558  eV     1   --> A'             
     e(  2 -  2) =      3.39645  eV     1   --> A'             
     e(  3 -  3) =      4.59540  eV     1   --> A'             
     e(  4 -  4) =      4.59553  eV     1   --> A''            
     e(  5 -  5) =      7.49144  eV     1   --> A'             
     e(  6 -  6) =      9.84762  eV     1   --> A'             
     e(  7 -  8) =     11.17930  eV     2   --> A'             
     e(  7 -  8) =     11.17930  eV     2   --> A''            
     e(  9 -  9) =     13.35273  eV     1   --> A'             
     e( 10 - 10) =     14.71675  eV     1   --> A''            
     e( 11 - 11) =     16.53022  eV     1   --> A'             
     e( 12 - 12) =     18.57535  eV     1   -->   ?

 **************************************************************************

 **************************************************************************

                    xk=(  -0.43333,   0.00000,   0.00000  )

     Band symmetry, C_s (m)     point group:

     e(  1 -  1) =     -5.00433  eV     1   --> A'             
     e(  2 -  2) =      3.24802  eV     1   --> A'             
     e(  3 -  3) =      4.52567  eV     1   --> A'             
     e(  4 -  4) =      4.52579  eV     1   --> A''            
     e(  5 -  5) =      7.43240  eV     1   --> A'             
     e(  6 -  6) =      9.71995  eV     1   --> A'             
     e(  7 -  8) =     11.32141  eV     2   --> A'             
     e(  7 -  8) =     11.32141  eV     2   --> A''            
     e(  9 -  9) =     13.50789  eV     1   --> A'             
     e( 10 - 10) =     14.78521  eV     1   --> A''            
     e( 11 - 11) =     16.70169  eV     1   --> A'             
     e( 12 - 12) =     18.67378  eV     1   -->   ?

 **************************************************************************

 **************************************************************************

                    xk=(  -0.45000,   0.00000,   0.00000  )

     Band symmetry, C_s (m)     point group:

     e(  1 -  1) =     -4.94076  eV     1   --> A'             
     e(  2 -  2) =      3.09917  eV     1   --> A'             
     e(  3 -  3) =      4.45745  eV     1   --> A'             
     e(  4 -  4) =      4.45757  eV     1   --> A''            
     e(  5 -  5) =      7.37473  eV     1   --> A'             
     e(  6 -  6) =      9.59071  eV     1   --> A'             
     e(  7 -  8) =     11.46463  eV     2   --> A'             
     e(  7 -  8) =     11.46463  eV     2   --> A''            
     e(  9 -  9) =     13.66843  eV     1   --> A'             
     e( 10 - 10) =     14.85635  eV     1   --> A''            
     e( 11 - 11) =     16.87498  eV     1   --> A'             
     e( 12 - 12) =     18.77383  eV     1   -->   ?

 **************************************************************************

 **************************************************************************

                    xk=(  -0.46667,   0.00000,   0.00000  )

     Band symmetry, C_s (m)     point group:

     e(  1 -  1) =     -4.87489  eV     1   --> A'             
     e(  2 -  2) =      2.94999  eV     1   --> A'             
     e(  3 -  3) =      4.39082  eV     1   --> A'             
     e(  4 -  4) =      4.39093  eV     1   --> A''            
     e(  5 -  5) =      7.31856  eV     1   --> A'             
     e(  6 -  6) =      9.46097  eV     1   --> A'             
     e(  7 -  8) =     11.60890  eV     2   --> A'             
     e(  7 -  8) =     11.60890  eV     2   --> A''            
     e(  9 -  9) =     13.83326  eV     1   --> A'             
     e( 10 - 10) =     14.93015  eV     1   --> A''            
     e( 11 - 11) =     17.04971  eV     1   --> A'             
     e( 12 - 12) =     18.87507  eV     1   -->   ?

 **************************************************************************

 **************************************************************************

                    xk=(  -0.48333,   0.00000,   0.00000  )

     Band symmetry, C_s (m)     point group:

     e(  1 -  1) =     -4.80674  eV     1   --> A'             
     e(  2 -  2) =      2.80054  eV     1   --> A'             
     e(  3 -  3) =      4.32583  eV     1   --> A'             
     e(  4 -  4) =      4.32595  eV     1   --> A''            
     e(  5 -  5) =      7.26401  eV     1   --> A'             
     e(  6 -  6) =      9.33156  eV     1   --> A'             
     e(  7 -  8) =     11.75413  eV     2   --> A'             
     e(  7 -  8) =     11.75413  eV     2   --> A''            
     e(  9 -  9) =     14.00153  eV     1   --> A'             
     e( 10 - 10) =     15.00662  eV     1   --> A''            
     e( 11 - 11) =     17.22551  eV     1   --> A'             
     e( 12 - 12) =     18.97659  eV     1   -->   ?

 **************************************************************************

 **************************************************************************

                    xk=(  -0.50000,   0.00000,   0.00000  )

     Band symmetry, C_s (m)     point group:

     e(  1 -  1) =     -4.73632  eV     1   --> A'             
     e(  2 -  2) =      2.65088  eV     1   --> A'             
     e(  3 -  3) =      4.26255  eV     1   --> A'             
     e(  4 -  4) =      4.26266  eV     1   --> A''            
     e(  5 -  5) =      7.21119  eV     1   --> A'             
     e(  6 -  6) =      9.20314  eV     1   --> A'             
     e(  7 -  8) =     11.90029  eV     2   --> A'             
     e(  7 -  8) =     11.90029  eV     2   --> A''            
     e(  9 -  9) =     14.17255  eV     1   --> A'             
     e( 10 - 10) =     15.08575  eV     1   --> A''            
     e( 11 - 11) =     17.40195  eV     1   --> A'             
     e( 12 - 12) =     19.07756  eV     1   -->   ?

 **************************************************************************

 **************************************************************************

                    xk=(  -0.51667,   0.00000,   0.00000  )

     Band symmetry, C_s (m)     point group:

     e(  1 -  1) =     -4.66363  eV     1   --> A'             
     e(  2 -  2) =      2.50107  eV     1   --> A'             
     e(  3 -  3) =      4.20102  eV     1   --> A'             
     e(  4 -  4) =      4.20113  eV     1   --> A''            
     e(  5 -  5) =      7.16020  eV     1   --> A'             
     e(  6 -  6) =      9.07624  eV     1   --> A'             
     e(  7 -  8) =     12.04729  eV     2   --> A'             
     e(  7 -  8) =     12.04729  eV     2   --> A''            
     e(  9 -  9) =     14.34576  eV     1   --> A'             
     e( 10 - 10) =     15.16754  eV     1   --> A''            
     e( 11 - 11) =     17.57858  eV     1   --> A'             
     e( 12 - 12) =     19.17656  eV     1   -->   ?

 **************************************************************************

 **************************************************************************

                    xk=(  -0.53333,   0.00000,   0.00000  )

     Band symmetry, C_s (m)     point group:

     e(  1 -  1) =     -4.58870  eV     1   --> A'             
     e(  2 -  2) =      2.35118  eV     1   --> A'             
     e(  3 -  3) =      4.14128  eV     1   --> A'             
     e(  4 -  4) =      4.14139  eV     1   --> A''            
     e(  5 -  5) =      7.11113  eV     1   --> A'             
     e(  6 -  6) =      8.95126  eV     1   --> A'             
     e(  7 -  8) =     12.19512  eV     2   --> A'             
     e(  7 -  8) =     12.19512  eV     2   --> A''            
     e(  9 -  9) =     14.52068  eV     1   --> A'             
     e( 10 - 10) =     15.25200  eV     1   --> A''            
     e( 11 - 11) =     17.75491  eV     1   --> A'             
     e( 12 - 12) =     19.27225  eV     1   -->   ?

 **************************************************************************

 **************************************************************************

                    xk=(  -0.55000,   0.00000,   0.00000  )

     Band symmetry, C_s (m)     point group:

     e(  1 -  1) =     -4.51154  eV     1   --> A'             
     e(  2 -  2) =      2.20125  eV     1   --> A'             
     e(  3 -  3) =      4.08338  eV     1   --> A'             
     e(  4 -  4) =      4.08349  eV     1   --> A''            
     e(  5 -  5) =      7.06408  eV     1   --> A'             
     e(  6 -  6) =      8.82856  eV     1   --> A'             
     e(  7 -  8) =     12.34371  eV     2   --> A'             
     e(  7 -  8) =     12.34371  eV     2   --> A''            
     e(  9 -  9) =     14.69690  eV     1   --> A'             
     e( 10 - 10) =     15.33910  eV     1   --> A''            
     e( 11 - 11) =     17.93038  eV     1   --> A'             
     e( 12 - 12) =     19.36259  eV     1   -->   ?

 **************************************************************************

 **************************************************************************

                    xk=(  -0.56667,   0.00000,   0.00000  )

     Band symmetry, C_s (m)     point group:

     e(  1 -  1) =     -4.43216  eV     1   --> A'             
     e(  2 -  2) =      2.05135  eV     1   --> A'             
     e(  3 -  3) =      4.02735  eV     1   --> A'             
     e(  4 -  4) =      4.02746  eV     1   --> A''            
     e(  5 -  5) =      7.01911  eV     1   --> A'             
     e(  6 -  6) =      8.70839  eV     1   --> A'             
     e(  7 -  8) =     12.49304  eV     2   --> A'             
     e(  7 -  8) =     12.49304  eV     2   --> A''            
     e(  9 -  9) =     14.87407  eV     1   --> A'             
     e( 10 - 10) =     15.42886  eV     1   --> A''            
     e( 11 - 11) =     18.10435  eV     1   --> A'             
     e( 12 - 12) =     19.44520  eV     1   -->   ?

 **************************************************************************

 **************************************************************************

                    xk=(  -0.58333,   0.00000,   0.00000  )

     Band symmetry, C_s (m)     point group:

     e(  1 -  1) =     -4.35057  eV     1   --> A'             
     e(  2 -  2) =      1.90152  eV     1   --> A'             
     e(  3 -  3) =      3.97323  eV     1   --> A'             
     e(  4 -  4) =      3.97334  eV     1   --> A''            
     e(  5 -  5) =      6.97631  eV     1   --> A'             
     e(  6 -  6) =      8.59099  eV     1   --> A'             
     e(  7 -  8) =     12.64307  eV     2   --> A'             
     e(  7 -  8) =     12.64307  eV     2   --> A''            
     e(  9 -  9) =     15.05189  eV     1   --> A'             
     e( 10 - 10) =     15.52126  eV     1   --> A''            
     e( 11 - 11) =     18.27614  eV     1   --> A'             
     e( 12 - 12) =     19.51729  eV     1   -->   ?

 **************************************************************************

 **************************************************************************

                    xk=(  -0.60000,   0.00000,   0.00000  )

     Band symmetry, C_s (m)     point group:

     e(  1 -  1) =     -4.26681  eV     1   --> A'             
     e(  2 -  2) =      1.75182  eV     1   --> A'             
     e(  3 -  3) =      3.92104  eV     1   --> A'             
     e(  4 -  4) =      3.92115  eV     1   --> A''            
     e(  5 -  5) =      6.93574  eV     1   --> A'             
     e(  6 -  6) =      8.47653  eV     1   --> A'             
     e(  7 -  8) =     12.79378  eV     2   --> A'             
     e(  7 -  8) =     12.79378  eV     2   --> A''            
     e(  9 -  9) =     15.23008  eV     1   --> A'             
     e( 10 - 10) =     15.61631  eV     1   --> A''            
     e( 11 - 11) =     18.44496  eV     1   --> A'             
     e( 12 - 12) =     19.57530  eV     1   -->   ?

 **************************************************************************

 **************************************************************************

                    xk=(  -0.61667,   0.00000,   0.00000  )

     Band symmetry, C_s (m)     point group:

     e(  1 -  1) =     -4.18088  eV     1   --> A'             
     e(  2 -  2) =      1.60230  eV     1   --> A'             
     e(  3 -  3) =      3.87082  eV     1   --> A'             
     e(  4 -  4) =      3.87092  eV     1   --> A''            
     e(  5 -  5) =      6.89748  eV     1   --> A'             
     e(  6 -  6) =      8.36517  eV     1   --> A'             
     e(  7 -  8) =     12.94513  eV     2   --> A'             
     e(  7 -  8) =     12.94513  eV     2   --> A''            
     e(  9 -  9) =     15.40838  eV     1   --> A'             
     e( 10 - 10) =     15.71401  eV     1   --> A''            
     e( 11 - 11) =     18.60992  eV     1   --> A'             
     e( 12 - 12) =     19.61593  eV     1   -->   ?

 **************************************************************************

 **************************************************************************

                    xk=(  -0.63333,   0.00000,   0.00000  )

     Band symmetry, C_s (m)     point group:

     e(  1 -  1) =     -4.09280  eV     1   --> A'             
     e(  2 -  2) =      1.45303  eV     1   --> A'             
     e(  3 -  3) =      3.82258  eV     1   --> A'             
     e(  4 -  4) =      3.82269  eV     1   --> A''            
     e(  5 -  5) =      6.86158  eV     1   --> A'             
     e(  6 -  6) =      8.25703  eV     1   --> A'             
     e(  7 -  8) =     13.09712  eV     2   --> A'             
     e(  7 -  8) =     13.09712  eV     2   --> A''            
     e(  9 -  9) =     15.58658  eV     1   --> A'             
     e( 10 - 10) =     15.81435  eV     1   --> A''            
     e( 11 - 11) =     18.77002  eV     1   --> A'             
     e( 12 - 12) =     19.63588  eV     1   -->   ?

 **************************************************************************

 **************************************************************************

                    xk=(  -0.65000,   0.00000,   0.00000  )

     Band symmetry, C_s (m)     point group:

     e(  1 -  1) =     -4.00258  eV     1   --> A'             
     e(  2 -  2) =      1.30404  eV     1   --> A'             
     e(  3 -  4) =      3.77636  eV     2   --> A'             
     e(  3 -  4) =      3.77636  eV     2   --> A''            
     e(  5 -  5) =      6.82810  eV     1   --> A'             
     e(  6 -  6) =      8.15221  eV     1   --> A'             
     e(  7 -  8) =     13.24972  eV     2   --> A'             
     e(  7 -  8) =     13.24972  eV     2   --> A''            
     e(  9 -  9) =     15.76447  eV     1   --> A'             
     e( 10 - 10) =     15.91732  eV     1   --> A''            
     e( 11 - 11) =     18.92414  eV     1   --> A'             
     e( 12 - 12) =     19.63238  eV     1   -->   ?

 **************************************************************************

 **************************************************************************

                    xk=(  -0.66667,   0.00000,   0.00000  )

     Band symmetry, C_s (m)     point group:

     e(  1 -  1) =     -3.91026  eV     1   --> A'             
     e(  2 -  2) =      1.15540  eV     1   --> A'             
     e(  3 -  4) =      3.73217  eV     2   --> A'             
     e(  3 -  4) =      3.73217  eV     2   --> A''            
     e(  5 -  5) =      6.79711  eV     1   --> A'             
     e(  6 -  6) =      8.05078  eV     1   --> A'             
     e(  7 -  8) =     13.40290  eV     2   --> A'             
     e(  7 -  8) =     13.40290  eV     2   --> A''            
     e(  9 -  9) =     15.94186  eV     1   --> A'             
     e( 10 - 10) =     16.02293  eV     1   --> A''            
     e( 11 - 11) =     19.07105  eV     1   --> A'             
     e( 12 - 12) =     19.60445  eV     1   -->   ?

 **************************************************************************

 **************************************************************************

                    xk=(  -0.68333,   0.00000,   0.00000  )

     Band symmetry, C_s (m)     point group:

     e(  1 -  1) =     -3.81585  eV     1   --> A'             
     e(  2 -  2) =      1.00716  eV     1   --> A'             
     e(  3 -  4) =      3.69003  eV     2   --> A'             
     e(  3 -  4) =      3.69003  eV     2   --> A''            
     e(  5 -  5) =      6.76864  eV     1   --> A'             
     e(  6 -  6) =      7.95281  eV     1   --> A'             
     e(  7 -  8) =     13.55666  eV     2   --> A'             
     e(  7 -  8) =     13.55666  eV     2   --> A''            
     e(  9 -  9) =     16.11855  eV     1   --> A'             
     e( 10 - 10) =     16.13117  eV     1   --> A''            
     e( 11 - 11) =     19.20940  eV     1   --> A'             
     e( 12 - 12) =     19.55227  eV     1   -->   ?

 **************************************************************************

 **************************************************************************

                    xk=(  -0.70000,   0.00000,   0.00000  )

     Band symmetry, C_s (m)     point group:

     e(  1 -  1) =     -3.71938  eV     1   --> A'             
     e(  2 -  2) =      0.85937  eV     1   --> A'             
     e(  3 -  4) =      3.64996  eV     2   --> A'             
     e(  3 -  4) =      3.64996  eV     2   --> A''            
     e(  5 -  5) =      6.74276  eV     1   --> A'             
     e(  6 -  6) =      7.85834  eV     1   --> A'             
     e(  7 -  8) =     13.71096  eV     2   --> A'             
     e(  7 -  8) =     13.71096  eV     2   --> A''            
     e(  9 -  9) =     16.24203  eV     1   --> A''            
     e( 10 - 10) =     16.29437  eV     1   --> A'             
     e( 11 - 11) =     19.33772  eV     1   --> A'             
     e( 12 - 12) =     19.47776  eV     1   -->   ?

 **************************************************************************

 **************************************************************************

                    xk=(  -0.71667,   0.00000,   0.00000  )

     Band symmetry, C_s (m)     point group:

     e(  1 -  1) =     -3.62086  eV     1   --> A'             
     e(  2 -  2) =      0.71210  eV     1   --> A'             
     e(  3 -  4) =      3.61198  eV     2   --> A'             
     e(  3 -  4) =      3.61198  eV     2   --> A''            
     e(  5 -  5) =      6.71951  eV     1   --> A'             
     e(  6 -  6) =      7.76743  eV     1   --> A'             
     e(  7 -  8) =     13.86578  eV     2   --> A'             
     e(  7 -  8) =     13.86578  eV     2   --> A''            
     e(  9 -  9) =     16.35552  eV     1   --> A''            
     e( 10 - 10) =     16.46917  eV     1   --> A'             
     e( 11 - 11) =     19.38362  eV     1   --> A''            
     e( 12 - 12) =     19.38372  eV     1   --> A'             

 **************************************************************************

 **************************************************************************

                    xk=(  -0.73333,   0.00000,   0.00000  )

     Band symmetry, C_s (m)     point group:

     e(  1 -  1) =     -3.52031  eV     1   --> A'             
     e(  2 -  2) =      0.56539  eV     1   --> A'             
     e(  3 -  4) =      3.57609  eV     2   --> A'             
     e(  3 -  4) =      3.57609  eV     2   --> A''            
     e(  5 -  5) =      6.69894  eV     1   --> A'             
     e(  6 -  6) =      7.68009  eV     1   --> A'             
     e(  7 -  8) =     14.02110  eV     2   --> A'             
     e(  7 -  8) =     14.02110  eV     2   --> A''            
     e(  9 -  9) =     16.47163  eV     1   --> A''            
     e( 10 - 10) =     16.64278  eV     1   --> A'             
     e( 11 - 12) =     19.27310  eV     2   --> A'             
     e( 11 - 12) =     19.27310  eV     2   --> A''            

 **************************************************************************

 **************************************************************************

                    xk=(  -0.75000,   0.00000,   0.00000  )

     Band symmetry, C_s (m)     point group:

     e(  1 -  1) =     -3.41777  eV     1   --> A'             
     e(  2 -  2) =      0.41930  eV     1   --> A'             
     e(  3 -  4) =      3.54232  eV     2   --> A'             
     e(  3 -  4) =      3.54232  eV     2   --> A''            
     e(  5 -  5) =      6.68109  eV     1   --> A'             
     e(  6 -  6) =      7.59634  eV     1   --> A'             
     e(  7 -  8) =     14.17687  eV     2   --> A'             
     e(  7 -  8) =     14.17687  eV     2   --> A''            
     e(  9 -  9) =     16.59035  eV     1   --> A''            
     e( 10 - 10) =     16.81503  eV     1   --> A'             
     e( 11 - 12) =     19.14928  eV     2   --> A'             
     e( 11 - 12) =     19.14928  eV     2   --> A''            

 **************************************************************************

 **************************************************************************

                    xk=(  -0.76667,   0.00000,   0.00000  )

     Band symmetry, C_s (m)     point group:

     e(  1 -  1) =     -3.31326  eV     1   --> A'             
     e(  2 -  2) =      0.27390  eV     1   --> A'             
     e(  3 -  4) =      3.51068  eV     2   --> A'             
     e(  3 -  4) =      3.51068  eV     2   --> A''            
     e(  5 -  5) =      6.66601  eV     1   --> A'             
     e(  6 -  6) =      7.51620  eV     1   --> A'             
     e(  7 -  8) =     14.33304  eV     2   --> A'             
     e(  7 -  8) =     14.33304  eV     2   --> A''            
     e(  9 -  9) =     16.71168  eV     1   --> A''            
     e( 10 - 10) =     16.98578  eV     1   --> A'             
     e( 11 - 12) =     19.01498  eV     2   --> A'             
     e( 11 - 12) =     19.01498  eV     2   --> A''            

 **************************************************************************

 **************************************************************************

                    xk=(  -0.78333,   0.00000,   0.00000  )

     Band symmetry, C_s (m)     point group:

     e(  1 -  1) =     -3.20681  eV     1   --> A'             
     e(  2 -  2) =      0.12923  eV     1   --> A'             
     e(  3 -  4) =      3.48117  eV     2   --> A'             
     e(  3 -  4) =      3.48117  eV     2   --> A''            
     e(  5 -  5) =      6.65374  eV     1   --> A'             
     e(  6 -  6) =      7.43966  eV     1   --> A'             
     e(  7 -  8) =     14.48955  eV     2   --> A'             
     e(  7 -  8) =     14.48955  eV     2   --> A''            
     e(  9 -  9) =     16.83562  eV     1   --> A''            
     e( 10 - 10) =     17.15485  eV     1   --> A'             
     e( 11 - 12) =     18.87260  eV     2   --> A'             
     e( 11 - 12) =     18.87260  eV     2   --> A''            

 **************************************************************************

 **************************************************************************

                    xk=(  -0.80000,   0.00000,   0.00000  )

     Band symmetry, C_s (m)     point group:

     e(  1 -  1) =     -3.09843  eV     1   --> A'             
     e(  2 -  2) =     -0.01465  eV     1   --> A'             
     e(  3 -  4) =      3.45381  eV     2   --> A'             
     e(  3 -  4) =      3.45381  eV     2   --> A''            
     e(  5 -  5) =      6.64432  eV     1   --> A'             
     e(  6 -  6) =      7.36673  eV     1   --> A'             
     e(  7 -  8) =     14.64631  eV     2   --> A'             
     e(  7 -  8) =     14.64631  eV     2   --> A''            
     e(  9 -  9) =     16.96215  eV     1   --> A''            
     e( 10 - 10) =     17.32211  eV     1   --> A'             
     e( 11 - 12) =     18.72413  eV     2   --> A'             
     e( 11 - 12) =     18.72413  eV     2   --> A''            

 **************************************************************************

 **************************************************************************

                    xk=(  -0.81667,   0.00000,   0.00000  )

     Band symmetry, C_s (m)     point group:

     e(  1 -  1) =     -2.98817  eV     1   --> A'             
     e(  2 -  2) =     -0.15769  eV     1   --> A'             
     e(  3 -  4) =      3.42861  eV     2   --> A'             
     e(  3 -  4) =      3.42861  eV     2   --> A''            
     e(  5 -  5) =      6.63779  eV     1   --> A'             
     e(  6 -  6) =      7.29740  eV     1   --> A'             
     e(  7 -  8) =     14.80319  eV     2   --> A'             
     e(  7 -  8) =     14.80319  eV     2   --> A''            
     e(  9 -  9) =     17.09128  eV     1   --> A''            
     e( 10 - 10) =     17.48737  eV     1   --> A'             
     e( 11 - 12) =     18.57124  eV     2   --> A'             
     e( 11 - 12) =     18.57124  eV     2   --> A''            

 **************************************************************************

 **************************************************************************

                    xk=(  -0.83333,   0.00000,   0.00000  )

     Band symmetry, C_s (m)     point group:

     e(  1 -  1) =     -2.87605  eV     1   --> A'             
     e(  2 -  2) =     -0.29982  eV     1   --> A'             
[...]

     e(  1 -  1) =     -5.04627  eV     1   --> A              
     e(  2 -  2) =      2.84412  eV     1   --> A              
     e(  3 -  3) =      4.03514  eV     1   --> A              
     e(  4 -  4) =      5.72617  eV     1   --> A              
     e(  5 -  5) =      9.18833  eV     1   --> A              
     e(  6 -  6) =      9.50343  eV     1   --> A              
     e(  7 -  7) =      9.75146  eV     1   --> A              
     e(  8 -  8) =     11.74439  eV     1   --> A              
     e(  9 -  9) =     12.27483  eV     1   --> A              
     e( 10 - 10) =     14.89824  eV     1   --> A              
     e( 11 - 11) =     16.20767  eV     1   --> A              
     e( 12 - 12) =     17.37790  eV     1   --> A              

 **************************************************************************

 **************************************************************************

                    xk=(  -0.28333,   0.00000,   0.28333  )

     Band symmetry, C_1 (1)     point group:

     e(  1 -  1) =     -5.12861  eV     1   --> A              
     e(  2 -  2) =      3.05121  eV     1   --> A              
     e(  3 -  3) =      4.19451  eV     1   --> A              
     e(  4 -  4) =      5.78107  eV     1   --> A              
     e(  5 -  5) =      9.18898  eV     1   --> A              
     e(  6 -  6) =      9.41649  eV     1   --> A              
     e(  7 -  7) =      9.65509  eV     1   --> A              
     e(  8 -  8) =     11.73163  eV     1   --> A              
     e(  9 -  9) =     12.32341  eV     1   --> A              
     e( 10 - 10) =     14.62113  eV     1   --> A              
     e( 11 - 11) =     16.05513  eV     1   --> A              
     e( 12 - 12) =     17.31203  eV     1   --> A              

 **************************************************************************

 **************************************************************************

                    xk=(  -0.26667,   0.00000,   0.26667  )

     Band symmetry, C_1 (1)     point group:

     e(  1 -  1) =     -5.20662  eV     1   --> A              
     e(  2 -  2) =      3.26161  eV     1   --> A              
     e(  3 -  3) =      4.35473  eV     1   --> A              
     e(  4 -  4) =      5.83195  eV     1   --> A              
     e(  5 -  5) =      9.18313  eV     1   --> A              
     e(  6 -  6) =      9.33445  eV     1   --> A              
     e(  7 -  7) =      9.56274  eV     1   --> A              
     e(  8 -  8) =     11.70440  eV     1   --> A              
     e(  9 -  9) =     12.38313  eV     1   --> A              
     e( 10 - 10) =     14.37284  eV     1   --> A              
     e( 11 - 11) =     15.89319  eV     1   --> A              
     e( 12 - 12) =     17.25464  eV     1   --> A              

 **************************************************************************

 **************************************************************************

                    xk=(  -0.25000,   0.00000,   0.25000  )

     Band symmetry, C_1 (1)     point group:

     e(  1 -  1) =     -5.28024  eV     1   --> A              
     e(  2 -  2) =      3.47502  eV     1   --> A              
     e(  3 -  3) =      4.51513  eV     1   --> A              
     e(  4 -  4) =      5.87876  eV     1   --> A              
     e(  5 -  5) =      9.17182  eV     1   --> A              
     e(  6 -  6) =      9.25734  eV     1   --> A              
     e(  7 -  7) =      9.47437  eV     1   --> A              
     e(  8 -  8) =     11.65499  eV     1   --> A              
     e(  9 -  9) =     12.45365  eV     1   --> A              
     e( 10 - 10) =     14.15964  eV     1   --> A              
     e( 11 - 11) =     15.72401  eV     1   --> A              
     e( 12 - 12) =     17.20598  eV     1   --> A              

 **************************************************************************

 **************************************************************************

                    xk=(  -0.23333,   0.00000,   0.23333  )

     Band symmetry, C_1 (1)     point group:

     e(  1 -  1) =     -5.34938  eV     1   --> A              
     e(  2 -  2) =      3.69111  eV     1   --> A              
     e(  3 -  3) =      4.67501  eV     1   --> A              
     e(  4 -  4) =      5.92152  eV     1   --> A              
     e(  5 -  5) =      9.15604  eV     1   --> A              
     e(  6 -  6) =      9.18516  eV     1   --> A              
     e(  7 -  7) =      9.38990  eV     1   --> A              
     e(  8 -  8) =     11.57638  eV     1   --> A              
     e(  9 -  9) =     12.53452  eV     1   --> A              
     e( 10 - 10) =     13.98711  eV     1   --> A              
     e( 11 - 11) =     15.54979  eV     1   --> A              
     e( 12 - 12) =     17.16626  eV     1   --> A              

 **************************************************************************

 **************************************************************************

                    xk=(  -0.21667,   0.00000,   0.21667  )

     Band symmetry, C_1 (1)     point group:

     e(  1 -  1) =     -5.41398  eV     1   --> A              
     e(  2 -  2) =      3.90943  eV     1   --> A              
     e(  3 -  3) =      4.83356  eV     1   --> A              
     e(  4 -  4) =      5.96027  eV     1   --> A              
     e(  5 -  5) =      9.11792  eV     1   --> A              
     e(  6 -  6) =      9.13670  eV     1   --> A              
     e(  7 -  7) =      9.30928  eV     1   --> A              
     e(  8 -  8) =     11.46422  eV     1   --> A              
     e(  9 -  9) =     12.62511  eV     1   --> A              
     e( 10 - 10) =     13.85824  eV     1   --> A              
     e( 11 - 11) =     15.37282  eV     1   --> A              
     e( 12 - 12) =     17.13567  eV     1   --> A              

 **************************************************************************

 **************************************************************************

                    xk=(  -0.20000,   0.00000,   0.20000  )

     Band symmetry, C_1 (1)     point group:

     e(  1 -  1) =     -5.47399  eV     1   --> A              
     e(  2 -  2) =      4.12943  eV     1   --> A              
     e(  3 -  3) =      4.98985  eV     1   --> A              
     e(  4 -  4) =      5.99513  eV     1   --> A              
     e(  5 -  5) =      9.05563  eV     1   --> A              
     e(  6 -  6) =      9.11453  eV     1   --> A              
     e(  7 -  7) =      9.23249  eV     1   --> A              
     e(  8 -  8) =     11.31855  eV     1   --> A              
     e(  9 -  9) =     12.72463  eV     1   --> A              
     e( 10 - 10) =     13.77187  eV     1   --> A              
     e( 11 - 11) =     15.19548  eV     1   --> A              
     e( 12 - 12) =     17.11431  eV     1   --> A              

 **************************************************************************

 **************************************************************************

                    xk=(  -0.18333,   0.00000,   0.18333  )

     Band symmetry, C_1 (1)     point group:

     e(  1 -  1) =     -5.52937  eV     1   --> A              
     e(  2 -  2) =      4.35042  eV     1   --> A              
     e(  3 -  3) =      5.14286  eV     1   --> A              
     e(  4 -  4) =      6.02623  eV     1   --> A              
     e(  5 -  5) =      8.99829  eV     1   --> A              
     e(  6 -  6) =      9.09012  eV     1   --> A              
     e(  7 -  7) =      9.15952  eV     1   --> A              
     e(  8 -  8) =     11.14376  eV     1   --> A              
     e(  9 -  9) =     12.83210  eV     1   --> A              
     e( 10 - 10) =     13.72274  eV     1   --> A              
     e( 11 - 11) =     15.02023  eV     1   --> A              
     e( 12 - 12) =     17.10215  eV     1   --> A              

 **************************************************************************

 **************************************************************************

                    xk=(  -0.16667,   0.00000,   0.16667  )

     Band symmetry, C_1 (1)     point group:

     e(  1 -  1) =     -5.58006  eV     1   --> A              
     e(  2 -  2) =      4.57150  eV     1   --> A              
     e(  3 -  3) =      5.29142  eV     1   --> A              
     e(  4 -  4) =      6.05373  eV     1   --> A              
     e(  5 -  5) =      8.94592  eV     1   --> A              
     e(  6 -  6) =      9.06379  eV     1   --> A              
     e(  7 -  7) =      9.09042  eV     1   --> A              
     e(  8 -  8) =     10.94713  eV     1   --> A              
     e(  9 -  9) =     12.94629  eV     1   --> A              
     e( 10 - 10) =     13.70314  eV     1   --> A              
     e( 11 - 11) =     14.84954  eV     1   --> A              
     e( 12 - 12) =     17.09897  eV     1   --> A              

 **************************************************************************

 **************************************************************************

                    xk=(  -0.15000,   0.00000,   0.15000  )

     Band symmetry, C_1 (1)     point group:

     e(  1 -  1) =     -5.62603  eV     1   --> A              
     e(  2 -  2) =      4.79150  eV     1   --> A              
     e(  3 -  3) =      5.43421  eV     1   --> A              
     e(  4 -  4) =      6.07781  eV     1   --> A              
     e(  5 -  5) =      8.89852  eV     1   --> A              
     e(  6 -  6) =      9.02529  eV     1   --> A              
     e(  7 -  7) =      9.03562  eV     1   --> A              
     e(  8 -  8) =     10.73692  eV     1   --> A              
     e(  9 -  9) =     13.06566  eV     1   --> A              
     e( 10 - 10) =     13.70491  eV     1   --> A              
     e( 11 - 11) =     14.68585  eV     1   --> A              
     e( 12 - 12) =     17.10428  eV     1   --> A              

 **************************************************************************

 **************************************************************************

                    xk=(  -0.13333,   0.00000,   0.13333  )

     Band symmetry, C_1 (1)     point group:

     e(  1 -  1) =     -5.66725  eV     1   --> A              
     e(  2 -  2) =      5.00883  eV     1   --> A              
     e(  3 -  3) =      5.56974  eV     1   --> A              
     e(  4 -  4) =      6.09869  eV     1   --> A              
     e(  5 -  5) =      8.85609  eV     1   --> A              
     e(  6 -  6) =      8.96435  eV     1   --> A              
     e(  7 -  7) =      9.00535  eV     1   --> A              
     e(  8 -  8) =     10.52132  eV     1   --> A              
     e(  9 -  9) =     13.18833  eV     1   --> A              
     e( 10 - 10) =     13.72079  eV     1   --> A              
     e( 11 - 11) =     14.53156  eV     1   --> A              
     e( 12 - 12) =     17.11731  eV     1   --> A              

 **************************************************************************

 **************************************************************************

                    xk=(  -0.11667,   0.00000,   0.11667  )

     Band symmetry, C_1 (1)     point group:

     e(  1 -  1) =     -5.70368  eV     1   --> A              
     e(  2 -  2) =      5.22141  eV     1   --> A              
     e(  3 -  3) =      5.69636  eV     1   --> A              
     e(  4 -  4) =      6.11654  eV     1   --> A              
     e(  5 -  5) =      8.81864  eV     1   --> A              
     e(  6 -  6) =      8.90793  eV     1   --> A              
     e(  7 -  7) =      8.97235  eV     1   --> A              
     e(  8 -  8) =     10.30817  eV     1   --> A              
     e(  9 -  9) =     13.31192  eV     1   --> A              
     e( 10 - 10) =     13.74484  eV     1   --> A              
     e( 11 - 11) =     14.38897  eV     1   --> A              
     e( 12 - 12) =     17.13683  eV     1   --> A              

 **************************************************************************

 **************************************************************************

                    xk=(  -0.10000,   0.00000,   0.10000  )

     Band symmetry, C_1 (1)     point group:

     e(  1 -  1) =     -5.73530  eV     1   --> A              
     e(  2 -  2) =      5.42633  eV     1   --> A              
     e(  3 -  3) =      5.81223  eV     1   --> A              
     e(  4 -  4) =      6.13156  eV     1   --> A              
     e(  5 -  5) =      8.78618  eV     1   --> A              
     e(  6 -  6) =      8.85650  eV     1   --> A              
     e(  7 -  7) =      8.93555  eV     1   --> A              
     e(  8 -  8) =     10.10528  eV     1   --> A              
     e(  9 -  9) =     13.43349  eV     1   --> A              
     e( 10 - 10) =     13.77249  eV     1   --> A              
     e( 11 - 11) =     14.26024  eV     1   --> A              
     e( 12 - 12) =     17.16124  eV     1   --> A              

 **************************************************************************

 **************************************************************************

                    xk=(  -0.08333,   0.00000,   0.08333  )

     Band symmetry, C_1 (1)     point group:

     e(  1 -  1) =     -5.76210  eV     1   --> A              
     e(  2 -  2) =      5.61965  eV     1   --> A              
     e(  3 -  3) =      5.91536  eV     1   --> A              
     e(  4 -  4) =      6.14394  eV     1   --> A              
     e(  5 -  5) =      8.75871  eV     1   --> A              
     e(  6 -  6) =      8.81072  eV     1   --> A              
     e(  7 -  7) =      8.89371  eV     1   --> A              
     e(  8 -  8) =      9.92069  eV     1   --> A              
     e(  9 -  9) =     13.54944  eV     1   --> A              
     e( 10 - 10) =     13.80033  eV     1   --> A              
     e( 11 - 11) =     14.14743  eV     1   --> A              
     e( 12 - 12) =     17.18847  eV     1   --> A              

 **************************************************************************

 **************************************************************************

                    xk=(  -0.06667,   0.00000,   0.06667  )

     Band symmetry, C_1 (1)     point group:

     e(  1 -  1) =     -5.78404  eV     1   --> A              
     e(  2 -  2) =      5.79600  eV     1   --> A              
     e(  3 -  3) =      6.00369  eV     1   --> A              
     e(  4 -  4) =      6.15383  eV     1   --> A              
     e(  5 -  5) =      8.73622  eV     1   --> A              
     e(  6 -  6) =      8.77137  eV     1   --> A              
     e(  7 -  7) =      8.84623  eV     1   --> A              
     e(  8 -  8) =      9.76246  eV     1   --> A              
     e(  9 -  9) =     13.65535  eV     1   --> A              
     e( 10 - 10) =     13.82583  eV     1   --> A              
     e( 11 - 11) =     14.05235  eV     1   --> A              
     e( 12 - 12) =     17.21608  eV     1   --> A              

 **************************************************************************

 **************************************************************************

                    xk=(  -0.05000,   0.00000,   0.05000  )

     Band symmetry, C_1 (1)     point group:

     e(  1 -  1) =     -5.80112  eV     1   --> A              
     e(  2 -  2) =      5.94824  eV     1   --> A              
     e(  3 -  3) =      6.07514  eV     1   --> A              
     e(  4 -  4) =      6.16137  eV     1   --> A              
     e(  5 -  5) =      8.71874  eV     1   --> A              
     e(  6 -  6) =      8.73937  eV     1   --> A              
     e(  7 -  7) =      8.79492  eV     1   --> A              
     e(  8 -  8) =      9.63737  eV     1   --> A              
     e(  9 -  9) =     13.74619  eV     1   --> A              
     e( 10 - 10) =     13.84722  eV     1   --> A              
     e( 11 - 11) =     13.97661  eV     1   --> A              
     e( 12 - 12) =     17.24143  eV     1   --> A              

 **************************************************************************

 **************************************************************************

                    xk=(  -0.03333,   0.00000,   0.03333  )

     Band symmetry, C_1 (1)     point group:

     e(  1 -  1) =     -5.81333  eV     1   --> A              
     e(  2 -  2) =      6.06756  eV     1   --> A              
     e(  3 -  3) =      6.12781  eV     1   --> A              
     e(  4 -  4) =      6.16668  eV     1   --> A              
     e(  5 -  5) =      8.70624  eV     1   --> A              
     e(  6 -  6) =      8.71565  eV     1   --> A              
     e(  7 -  7) =      8.74597  eV     1   --> A              
     e(  8 -  8) =      9.54908  eV     1   --> A              
     e(  9 -  9) =     13.81649  eV     1   --> A              
     e( 10 - 10) =     13.86327  eV     1   --> A              
     e( 11 - 11) =     13.92152  eV     1   --> A              
     e( 12 - 12) =     17.26189  eV     1   --> A              

 **************************************************************************

 **************************************************************************

                    xk=(  -0.01667,   0.00000,   0.01667  )

     Band symmetry, C_1 (1)     point group:

     e(  1 -  1) =     -5.82066  eV     1   --> A              
     e(  2 -  2) =      6.14447  eV     1   --> A              
     e(  3 -  3) =      6.16011  eV     1   --> A              
     e(  4 -  4) =      6.16983  eV     1   --> A              
     e(  5 -  5) =      8.69875  eV     1   --> A              
     e(  6 -  6) =      8.70103  eV     1   --> A              
     e(  7 -  7) =      8.70968  eV     1   --> A              
     e(  8 -  8) =      9.49746  eV     1   --> A              
     e(  9 -  9) =     13.86119  eV     1   --> A              
     e( 10 - 10) =     13.87319  eV     1   --> A              
     e( 11 - 11) =     13.88806  eV     1   --> A              
     e( 12 - 12) =     17.27520  eV     1   --> A              

 **************************************************************************

 **************************************************************************

                    xk=(   0.00000,   0.00000,   0.00000  )

     point group C_3v (3m)  
     there are  3 classes
     the character table:

       E     2C3   3s_v 
A_1    1.00  1.00  1.00
A_2    1.00  1.00 -1.00
E      2.00 -1.00  0.00

     the symmetry operations in each class and the name of the first element:

     E        1
                                                                 
     2C3      2    3
                                                                 
     3s_v     4    5    6
                                                                 

     Band symmetry, C_3v (3m)   point group:

     e(  1 -  1) =     -5.82311  eV     1   --> A_1  L_1       
     e(  2 -  2) =      6.17074  eV     1   --> A_1  L_1       
     e(  3 -  4) =      6.17113  eV     2   --> E    L_3       
     e(  5 -  6) =      8.69609  eV     2   --> E    L_3       
     e(  7 -  7) =      8.69633  eV     1   --> A_1  L_1       
     e(  8 -  8) =      9.48060  eV     1   --> A_1  L_1       
     e(  9 - 10) =     13.87654  eV     2   --> E    L_3       
     e( 11 - 11) =     13.87684  eV     1   --> A_1  L_1       
     e( 12 - 12) =     17.27982  eV     1   -->   ?

 **************************************************************************

     BANDS        :      1.83s CPU      1.88s WALL


   This run was terminated on:  14:38:34  20Dec2024            

=------------------------------------------------------------------------------=
   JOB DONE.
=------------------------------------------------------------------------------=
