
     Program BANDS v.7.3.1 starts on 22Dec2024 at 14:36: 1 

     This program is part of the open-source Quantum ESPRESSO suite
     for quantum simulation of materials; please cite
         "P. Giannozzi et al., J. Phys.:Condens. Matter 21 395502 (2009);
         "P. Giannozzi et al., J. Phys.:Condens. Matter 29 465901 (2017);
         "P. Giannozzi et al., J. Chem. Phys. 152 154105 (2020);
          URL http://www.quantum-espresso.org", 
     in publications or presentations arising from this work. More details at
     http://www.quantum-espresso.org/quote

     Serial version
     108655 MiB available memory on the printing compute node when the environment starts


     Reading xml data from directory:

     ./silicon.save/

     IMPORTANT: XC functional enforced from input :
     Exchange-correlation= PBESOL
                           (   1   4  10   8   0   0   0)
     Any further DFT definition will be discarded
     Please, verify this is what you really want


     G-vector sticks info
     --------------------
     sticks:   dense  smooth     PW     G-vecs:    dense   smooth      PW
     Sum         583     583    169                 9257     9257    1471

     Using Slab Decomposition


     Check: negative core charge=   -0.000003
     Reading collected, re-writing distributed wavefunctions
     high-symmetry point: -0.5000 0.5000 0.5000   x coordinate   0.0000
     high-symmetry point:  0.0000 0.0000 0.0000   x coordinate   0.8660
     high-symmetry point: -1.0000 0.0000 0.0000   x coordinate   1.8660
     high-symmetry point: -1.0000 0.2500 0.2500   x coordinate   2.2196
     high-symmetry point: -0.7500 0.0000 0.7500   x coordinate   2.2196
     high-symmetry point:  0.0000 0.0000 0.0000   x coordinate   3.2802

     Plottable bands (eV) written to file Si_bands.dat.gnu
     Bands written to file Si_bands.dat

 **************************************************************************

                    xk=(  -0.50000,   0.50000,   0.50000  )

     zone border point and non-symmorphic group 
     symmetry decomposition not available

 **************************************************************************

 **************************************************************************

                    xk=(  -0.48000,   0.48000,   0.48000  )

     point group C_3v (3m)  
     there are  3 classes
     the character table:

       E     2C3   3s_v 
A_1    1.00  1.00  1.00
A_2    1.00  1.00 -1.00
E      2.00 -1.00  0.00

     the symmetry operations in each class and the name of the first element:

     E        1
                                                                 
     2C3      2    3
                                                                 
     3s_v     4    5    6
                                                                 

     Band symmetry, C_3v (3m)   point group:

     e(  1 -  1) =     -3.49471  eV     1   --> A_1  L_1       
     e(  2 -  2) =     -0.81324  eV     1   --> A_1  L_1       
     e(  3 -  4) =      4.96977  eV     2   --> E    L_3       
     e(  5 -  5) =      7.64041  eV     1   --> A_1  L_1       
     e(  6 -  7) =      9.45753  eV     2   --> E    L_3       
     e(  8 -  8) =     13.69805  eV     1   --> A_1  L_1       
     e(  9 - 10) =     16.51614  eV     2   --> E    L_3       
     e( 11 - 11) =     17.29630  eV     1   --> A_1  L_1       
     e( 12 - 12) =     17.64827  eV     1   -->   ?

 **************************************************************************

 **************************************************************************

                    xk=(  -0.46000,   0.46000,   0.46000  )

     Band symmetry, C_3v (3m)   point group:

     e(  1 -  1) =     -3.56127  eV     1   --> A_1  L_1       
     e(  2 -  2) =     -0.71691  eV     1   --> A_1  L_1       
     e(  3 -  4) =      4.97836  eV     2   --> E    L_3       
     e(  5 -  5) =      7.65036  eV     1   --> A_1  L_1       
     e(  6 -  7) =      9.46778  eV     2   --> E    L_3       
     e(  8 -  8) =     13.71414  eV     1   --> A_1  L_1       
     e(  9 - 10) =     16.17873  eV     2   --> E    L_3       
     e( 11 - 11) =     17.07906  eV     1   --> A_1  L_1       
     e( 12 - 12) =     18.02171  eV     1   -->   ?

 **************************************************************************

 **************************************************************************

                    xk=(  -0.44000,   0.44000,   0.44000  )

     Band symmetry, C_3v (3m)   point group:

     e(  1 -  1) =     -3.66256  eV     1   --> A_1  L_1       
     e(  2 -  2) =     -0.56606  eV     1   --> A_1  L_1       
     e(  3 -  4) =      4.99267  eV     2   --> E    L_3       
     e(  5 -  5) =      7.66691  eV     1   --> A_1  L_1       
     e(  6 -  7) =      9.48435  eV     2   --> E    L_3       
     e(  8 -  8) =     13.74014  eV     1   --> A_1  L_1       
     e(  9 - 10) =     15.81772  eV     2   --> E    L_3       
     e( 11 - 11) =     16.79062  eV     1   --> A_1  L_1       
     e( 12 - 12) =     18.44241  eV     1   -->   ?

 **************************************************************************

 **************************************************************************

                    xk=(  -0.42000,   0.42000,   0.42000  )

     Band symmetry, C_3v (3m)   point group:

     e(  1 -  1) =     -3.78854  eV     1   --> A_1  L_1       
     e(  2 -  2) =     -0.37079  eV     1   --> A_1  L_1       
     e(  3 -  4) =      5.01270  eV     2   --> E    L_3       
     e(  5 -  5) =      7.69002  eV     1   --> A_1  L_1       
     e(  6 -  7) =      9.50647  eV     2   --> E    L_3       
     e(  8 -  8) =     13.77457  eV     1   --> A_1  L_1       
     e(  9 - 10) =     15.46068  eV     2   --> E    L_3       
     e( 11 - 11) =     16.46975  eV     1   --> A_1  L_1       
     e( 12 - 12) =     18.88198  eV     1   -->   ?

 **************************************************************************

 **************************************************************************

                    xk=(  -0.40000,   0.40000,   0.40000  )

     Band symmetry, C_3v (3m)   point group:

     e(  1 -  1) =     -3.93020  eV     1   --> A_1  L_1       
     e(  2 -  2) =     -0.14022  eV     1   --> A_1  L_1       
     e(  3 -  4) =      5.03842  eV     2   --> E    L_3       
     e(  5 -  5) =      7.71964  eV     1   --> A_1  L_1       
     e(  6 -  7) =      9.53298  eV     2   --> E    L_3       
     e(  8 -  8) =     13.81473  eV     1   --> A_1  L_1       
     e(  9 - 10) =     15.11624  eV     2   --> E    L_3       
     e( 11 - 11) =     16.13737  eV     1   --> A_1  L_1       
     e( 12 - 12) =     19.33014  eV     1   -->   ?

 **************************************************************************

 **************************************************************************

                    xk=(  -0.38000,   0.38000,   0.38000  )

     Band symmetry, C_3v (3m)   point group:

     e(  1 -  1) =     -4.08048  eV     1   --> A_1  L_1       
     e(  2 -  2) =      0.11844  eV     1   --> A_1  L_1       
     e(  3 -  4) =      5.06981  eV     2   --> E    L_3       
     e(  5 -  5) =      7.75568  eV     1   --> A_1  L_1       
     e(  6 -  7) =      9.56233  eV     2   --> E    L_3       
     e(  8 -  8) =     13.85569  eV     1   --> A_1  L_1       
     e(  9 - 10) =     14.78884  eV     2   --> E    L_3       
     e( 11 - 11) =     15.80718  eV     1   --> A_1  L_1       
     e( 12 - 12) =     19.77890  eV     1   -->   ?

 **************************************************************************

 **************************************************************************

                    xk=(  -0.36000,   0.36000,   0.36000  )

     Band symmetry, C_3v (3m)   point group:

     e(  1 -  1) =     -4.23423  eV     1   --> A_1  L_1       
     e(  2 -  2) =      0.39983  eV     1   --> A_1  L_1       
     e(  3 -  4) =      5.10682  eV     2   --> E    L_3       
     e(  5 -  5) =      7.79802  eV     1   --> A_1  L_1       
     e(  6 -  7) =      9.59248  eV     2   --> E    L_3       
     e(  8 -  8) =     13.88796  eV     1   --> A_1  L_1       
     e(  9 - 10) =     14.48195  eV     2   --> E    L_3       
     e( 11 - 11) =     15.49289  eV     1   --> A_1  L_1       
     e( 12 - 12) =     20.01000  eV     1   --> A_1  L_1       

 **************************************************************************

 **************************************************************************

                    xk=(  -0.34000,   0.34000,   0.34000  )

     Band symmetry, C_3v (3m)   point group:

     e(  1 -  1) =     -4.38772  eV     1   --> A_1  L_1       
     e(  2 -  2) =      0.70003  eV     1   --> A_1  L_1       
     e(  3 -  4) =      5.14938  eV     2   --> E    L_3       
     e(  5 -  5) =      7.84650  eV     1   --> A_1  L_1       
     e(  6 -  7) =      9.62088  eV     2   --> E    L_3       
     e(  8 -  8) =     13.89298  eV     1   --> A_1  L_1       
     e(  9 - 10) =     14.19885  eV     2   --> E    L_3       
     e( 11 - 11) =     15.21485  eV     1   --> A_1  L_1       
     e( 12 - 12) =     19.73799  eV     1   --> A_1  L_1       

 **************************************************************************

 **************************************************************************

                    xk=(  -0.32000,   0.32000,   0.32000  )

     Band symmetry, C_3v (3m)   point group:

     e(  1 -  1) =     -4.53832  eV     1   --> A_1  L_1       
     e(  2 -  2) =      1.01609  eV     1   --> A_1  L_1       
     e(  3 -  4) =      5.19739  eV     2   --> E    L_3       
     e(  5 -  5) =      7.90090  eV     1   --> A_1  L_1       
     e(  6 -  7) =      9.64447  eV     2   --> E    L_3       
     e(  8 -  8) =     13.83874  eV     1   --> A_1  L_1       
     e(  9 - 10) =     13.94305  eV     2   --> E    L_3       
     e( 11 - 11) =     15.00531  eV     1   --> A_1  L_1       
     e( 12 - 12) =     19.36069  eV     1   --> A_1  L_1       

 **************************************************************************

 **************************************************************************

                    xk=(  -0.30000,   0.30000,   0.30000  )

     Band symmetry, C_3v (3m)   point group:

     e(  1 -  1) =     -4.68412  eV     1   --> A_1  L_1       
     e(  2 -  2) =      1.34577  eV     1   --> A_1  L_1       
     e(  3 -  4) =      5.25070  eV     2   --> E    L_3       
     e(  5 -  5) =      7.96095  eV     1   --> A_1  L_1       
     e(  6 -  7) =      9.65972  eV     2   --> E    L_3       
     e(  8 -  8) =     13.69324  eV     1   --> A_1  L_1       
     e(  9 - 10) =     13.71829  eV     2   --> E    L_3       
     e( 11 - 11) =     14.89534  eV     1   --> A_1  L_1       
     e( 12 - 12) =     18.93268  eV     1   --> A_1  L_1       

 **************************************************************************

 **************************************************************************

                    xk=(  -0.28000,   0.28000,   0.28000  )

     Band symmetry, C_3v (3m)   point group:

     e(  1 -  1) =     -4.82374  eV     1   --> A_1  L_1       
     e(  2 -  2) =      1.68725  eV     1   --> A_1  L_1       
     e(  3 -  4) =      5.30910  eV     2   --> E    L_3       
     e(  5 -  5) =      8.02628  eV     1   --> A_1  L_1       
     e(  6 -  7) =      9.66289  eV     2   --> E    L_3       
     e(  8 -  8) =     13.45924  eV     1   --> A_1  L_1       
     e(  9 - 10) =     13.52842  eV     2   --> E    L_3       
     e( 11 - 11) =     14.87988  eV     1   --> A_1  L_1       
     e( 12 - 12) =     18.48834  eV     1   --> A_1  L_1       

 **************************************************************************

 **************************************************************************

                    xk=(  -0.26000,   0.26000,   0.26000  )

     Band symmetry, C_3v (3m)   point group:

     e(  1 -  1) =     -4.95615  eV     1   --> A_1  L_1       
     e(  2 -  2) =      2.03895  eV     1   --> A_1  L_1       
     e(  3 -  4) =      5.37232  eV     2   --> E    L_3       
     e(  5 -  5) =      8.09639  eV     1   --> A_1  L_1       
     e(  6 -  7) =      9.65039  eV     2   --> E    L_3       
     e(  8 -  8) =     13.16782  eV     1   --> A_1  L_1       
     e(  9 - 10) =     13.37700  eV     2   --> E    L_3       
     e( 11 - 11) =     14.92387  eV     1   --> A_1  L_1       
     e( 12 - 12) =     18.04939  eV     1   --> A_1  L_1       

 **************************************************************************

 **************************************************************************

                    xk=(  -0.24000,   0.24000,   0.24000  )

     Band symmetry, C_3v (3m)   point group:

     e(  1 -  1) =     -5.08058  eV     1   --> A_1  L_1       
     e(  2 -  2) =      2.39944  eV     1   --> A_1  L_1       
     e(  3 -  4) =      5.43998  eV     2   --> E    L_3       
     e(  5 -  5) =      8.17067  eV     1   --> A_1  L_1       
     e(  6 -  7) =      9.61948  eV     2   --> E    L_3       
     e(  8 -  8) =     12.84516  eV     1   --> A_1  L_1       
     e(  9 - 10) =     13.26670  eV     2   --> E    L_3       
     e( 11 - 11) =     14.99423  eV     1   --> A_1  L_1       
     e( 12 - 12) =     17.63281  eV     1   --> A_1  L_1       

 **************************************************************************

 **************************************************************************

                    xk=(  -0.22000,   0.22000,   0.22000  )

     Band symmetry, C_3v (3m)   point group:

     e(  1 -  1) =     -5.19643  eV     1   --> A_1  L_1       
     e(  2 -  2) =      2.76729  eV     1   --> A_1  L_1       
     e(  3 -  4) =      5.51158  eV     2   --> E    L_3       
     e(  5 -  5) =      8.24829  eV     1   --> A_1  L_1       
     e(  6 -  7) =      9.56879  eV     2   --> E    L_3       
     e(  8 -  8) =     12.50564  eV     1   --> A_1  L_1       
     e(  9 - 10) =     13.19864  eV     2   --> E    L_3       
     e( 11 - 11) =     15.06483  eV     1   --> A_1  L_1       
     e( 12 - 12) =     17.25670  eV     1   --> A_1  L_1       

 **************************************************************************

 **************************************************************************

                    xk=(  -0.20000,   0.20000,   0.20000  )

     Band symmetry, C_3v (3m)   point group:

     e(  1 -  1) =     -5.30325  eV     1   --> A_1  L_1       
     e(  2 -  2) =      3.14095  eV     1   --> A_1  L_1       
     e(  3 -  4) =      5.58646  eV     2   --> E    L_3       
     e(  5 -  5) =      8.32821  eV     1   --> A_1  L_1       
     e(  6 -  7) =      9.49888  eV     2   --> E    L_3       
     e(  8 -  8) =     12.15664  eV     1   --> A_1  L_1       
     e(  9 - 10) =     13.17197  eV     2   --> E    L_3       
     e( 11 - 11) =     15.10865  eV     1   --> A_1  L_1       
     e( 12 - 12) =     16.94512  eV     1   --> A_1  L_1       

 **************************************************************************

 **************************************************************************

                    xk=(  -0.18000,   0.18000,   0.18000  )

     Band symmetry, C_3v (3m)   point group:

     e(  1 -  1) =     -5.40068  eV     1   --> A_1  L_1       
     e(  2 -  2) =      3.51867  eV     1   --> A_1  L_1       
     e(  3 -  4) =      5.66376  eV     2   --> E    L_3       
     e(  5 -  5) =      8.40904  eV     1   --> A_1  L_1       
     e(  6 -  7) =      9.41222  eV     2   --> E    L_3       
     e(  8 -  8) =     11.80243  eV     1   --> A_1  L_1       
     e(  9 - 10) =     13.18371  eV     2   --> E    L_3       
     e( 11 - 11) =     15.09423  eV     1   --> A_1  L_1       
     e( 12 - 12) =     16.72874  eV     1   --> A_1  L_1       

 **************************************************************************

 **************************************************************************

                    xk=(  -0.16000,   0.16000,   0.16000  )

     Band symmetry, C_3v (3m)   point group:

     e(  1 -  1) =     -5.48843  eV     1   --> A_1  L_1       
     e(  2 -  2) =      3.89828  eV     1   --> A_1  L_1       
     e(  3 -  4) =      5.74238  eV     2   --> E    L_3       
     e(  5 -  5) =      8.48900  eV     1   --> A_1  L_1       
     e(  6 -  7) =      9.31284  eV     2   --> E    L_3       
     e(  8 -  8) =     11.44625  eV     1   --> A_1  L_1       
     e(  9 - 10) =     13.22912  eV     2   --> E    L_3       
     e( 11 - 11) =     14.99935  eV     1   --> A_1  L_1       
     e( 12 - 12) =     16.62970  eV     1   --> A_1  L_1       

 **************************************************************************

 **************************************************************************

                    xk=(  -0.14000,   0.14000,   0.14000  )

     Band symmetry, C_3v (3m)   point group:

     e(  1 -  1) =     -5.56629  eV     1   --> A_1  L_1       
     e(  2 -  2) =      4.27695  eV     1   --> A_1  L_1       
     e(  3 -  4) =      5.82089  eV     2   --> E    L_3       
     e(  5 -  5) =      8.56569  eV     1   --> A_1  L_1       
     e(  6 -  7) =      9.20580  eV     2   --> E    L_3       
     e(  8 -  8) =     11.09157  eV     1   --> A_1  L_1       
     e(  9 - 10) =     13.30210  eV     2   --> E    L_3       
     e( 11 - 11) =     14.83432  eV     1   --> A_1  L_1       
     e( 12 - 12) =     16.63754  eV     1   --> A_1  L_1       

 **************************************************************************

 **************************************************************************

                    xk=(  -0.12000,   0.12000,   0.12000  )

     Band symmetry, C_3v (3m)   point group:

     e(  1 -  1) =     -5.63407  eV     1   --> A_1  L_1       
     e(  2 -  2) =      4.65080  eV     1   --> A_1  L_1       
     e(  3 -  4) =      5.89750  eV     2   --> E    L_3       
     e(  5 -  5) =      8.63592  eV     1   --> A_1  L_1       
     e(  6 -  7) =      9.09662  eV     2   --> E    L_3       
     e(  8 -  8) =     10.74314  eV     1   --> A_1  L_1       
     e(  9 - 10) =     13.39555  eV     2   --> E    L_3       
     e( 11 - 11) =     14.63373  eV     1   --> A_1  L_1       
     e( 12 - 12) =     16.71684  eV     1   --> A_1  L_1       

 **************************************************************************

 **************************************************************************

                    xk=(  -0.10000,   0.10000,   0.10000  )

     Band symmetry, C_3v (3m)   point group:

     e(  1 -  1) =     -5.69164  eV     1   --> A_1  L_1       
     e(  2 -  2) =      5.01420  eV     1   --> A_1  L_1       
     e(  3 -  4) =      5.96999  eV     2   --> E    L_3       
     e(  5 -  5) =      8.69529  eV     1   --> A_1  L_1       
     e(  6 -  7) =      8.99094  eV     2   --> E    L_3       
     e(  8 -  8) =     10.40837  eV     1   --> A_1  L_1       
     e(  9 - 10) =     13.50152  eV     2   --> E    L_3       
     e( 11 - 11) =     14.42981  eV     1   --> A_1  L_1       
     e( 12 - 12) =     16.83345  eV     1   --> A_1  L_1       

 **************************************************************************

 **************************************************************************

                    xk=(  -0.08000,   0.08000,   0.08000  )

     Band symmetry, C_3v (3m)   point group:

     e(  1 -  1) =     -5.73888  eV     1   --> A_1  L_1       
     e(  2 -  2) =      5.35861  eV     1   --> A_1  L_1       
     e(  3 -  4) =      6.03569  eV     2   --> E    L_3       
     e(  5 -  5) =      8.73768  eV     1   --> A_1  L_1       
     e(  6 -  7) =      8.89434  eV     2   --> E    L_3       
     e(  8 -  8) =     10.09904  eV     1   --> A_1  L_1       
     e(  9 - 10) =     13.61105  eV     2   --> E    L_3       
     e( 11 - 11) =     14.24377  eV     1   --> A_1  L_1       
     e( 12 - 12) =     16.96266  eV     1   --> A_1  L_1       

 **************************************************************************

 **************************************************************************

                    xk=(  -0.06000,   0.06000,   0.06000  )

     Band symmetry, C_3v (3m)   point group:

     e(  1 -  1) =     -5.77570  eV     1   --> A_1  L_1       
     e(  2 -  2) =      5.67075  eV     1   --> A_1  L_1       
     e(  3 -  4) =      6.09159  eV     2   --> E    L_3       
     e(  5 -  5) =      8.75540  eV     1   --> A_1  L_1       
     e(  6 -  7) =      8.81213  eV     2   --> E    L_3       
     e(  8 -  8) =      9.83333  eV     1   --> A_1  L_1       
     e(  9 - 10) =     13.71406  eV     2   --> E    L_3       
     e( 11 - 11) =     14.08864  eV     1   --> A_1  L_1       
     e( 12 - 12) =     17.08609  eV     1   --> A_1  L_1       

 **************************************************************************

 **************************************************************************

                    xk=(  -0.04000,   0.04000,   0.04000  )

     Band symmetry, C_3v (3m)   point group:

     e(  1 -  1) =     -5.80204  eV     1   --> A_1  L_1       
     e(  2 -  2) =      5.92997  eV     1   --> A_1  L_1       
     e(  3 -  4) =      6.13455  eV     2   --> E    L_3       
     e(  5 -  5) =      8.74342  eV     1   --> A_1  L_1       
     e(  6 -  7) =      8.74921  eV     2   --> E    L_3       
     e(  8 -  8) =      9.63421  eV     1   --> A_1  L_1       
     e(  9 - 10) =     13.79948  eV     2   --> E    L_3       
     e( 11 - 11) =     13.97265  eV     1   --> A_1  L_1       
     e( 12 - 12) =     17.18830  eV     1   --> A_1  L_1       

 **************************************************************************

 **************************************************************************

                    xk=(  -0.02000,   0.02000,   0.02000  )

     Band symmetry, C_3v (3m)   point group:

     e(  1 -  1) =     -5.81787  eV     1   --> A_1  L_1       
     e(  2 -  2) =      6.10710  eV     1   --> A_1  L_1       
     e(  3 -  4) =      6.16170  eV     2   --> E    L_3       
     e(  5 -  6) =      8.70961  eV     2   --> E    L_3       
     e(  7 -  7) =      8.71290  eV     1   --> A_1  L_1       
     e(  8 -  8) =      9.51748  eV     1   --> A_1  L_1       
     e(  9 - 10) =     13.85644  eV     2   --> E    L_3       
     e( 11 - 11) =     13.90106  eV     1   --> A_1  L_1       
     e( 12 - 12) =     17.25608  eV     1   --> A_1  L_1       

 **************************************************************************

 **************************************************************************

                    xk=(   0.00000,   0.00000,   0.00000  )

     point group O_h (m-3m) 
     there are 10 classes
     the character table:

       E     8C3   3C2   6C4   6C2'  i     8S6   3s_h  6S4   6s_d 
A_1g   1.00  1.00  1.00  1.00  1.00  1.00  1.00  1.00  1.00  1.00
A_2g   1.00  1.00  1.00 -1.00 -1.00  1.00  1.00  1.00 -1.00 -1.00
E_g    2.00 -1.00  2.00  0.00  0.00  2.00 -1.00  2.00  0.00  0.00
T_1g   3.00  0.00 -1.00  1.00 -1.00  3.00  0.00 -1.00  1.00 -1.00
T_2g   3.00  0.00 -1.00 -1.00  1.00  3.00  0.00 -1.00 -1.00  1.00
A_1u   1.00  1.00  1.00  1.00  1.00 -1.00 -1.00 -1.00 -1.00 -1.00
A_2u   1.00  1.00  1.00 -1.00 -1.00 -1.00 -1.00 -1.00  1.00  1.00
E_u    2.00 -1.00  2.00  0.00  0.00 -2.00  1.00 -2.00  0.00  0.00
T_1u   3.00  0.00 -1.00  1.00 -1.00 -3.00  0.00  1.00 -1.00  1.00
T_2u   3.00  0.00 -1.00 -1.00  1.00 -3.00  0.00  1.00  1.00 -1.00

     the symmetry operations in each class and the name of the first element:

     E        1
                                                                 
     8C3     17   19   20   18   24   21   22   23
                                                                 
     3C2      2    4    3
                                                                 
     6C4      7    8   15   16   12   11
                                                                 
     6C2'     5    6   14   13   10    9
                                                                 
     i       25
                                                                 
     8S6     41   43   44   42   48   45   46   47
                                                                 
     3s_h    26   28   27
                                                                 
     6S4     31   32   39   40   36   35
                                                                 
     6s_d    29   30   38   37   34   33
                                                                 

     Band symmetry, O_h (m-3m)  point group:

     e(  1 -  1) =     -5.82314  eV     1   --> A_1g G_1   G_1+
     e(  2 -  4) =      6.17100  eV     3   --> T_2g G_25' G_5+
     e(  5 -  7) =      8.69609  eV     3   --> T_1u G_15  G_4-
     e(  8 -  8) =      9.48054  eV     1   --> A_2u G_2'  G_2-
     e(  9 - 10) =     13.87650  eV     2   --> E_u  G_12' G_3-
     e( 11 - 11) =     13.87687  eV     1   --> A_1g G_1   G_1+
     e( 12 - 12) =     17.27988  eV     1   -->   ?

 **************************************************************************

 **************************************************************************

                    xk=(  -0.01667,   0.00000,   0.00000  )

     point group C_4v (4mm) 
     there are  5 classes
     the character table:

       E     2C4   C2    2s_v  2s_d 
A_1    1.00  1.00  1.00  1.00  1.00
A_2    1.00  1.00  1.00 -1.00 -1.00
B_1    1.00 -1.00  1.00  1.00 -1.00
B_2    1.00 -1.00  1.00 -1.00  1.00
E      2.00  0.00 -2.00  0.00  0.00

     the symmetry operations in each class and the name of the first element:

     E        1
                                                                 
     2C4      3    4
                                                                 
     C2       2
                                                                 
     2s_v     5    6
                                                                 
     2s_d     7    8
                                                                 

     Band symmetry, C_4v (4mm)  point group:

     e(  1 -  1) =     -5.82192  eV     1   --> A_1  G_1 D_1   
     e(  2 -  2) =      6.16249  eV     1   --> B_2  G_4 D_2'  
     e(  3 -  4) =      6.16555  eV     2   --> E    G_5 D_5   
     e(  5 -  5) =      8.69287  eV     1   --> A_1  G_1 D_1   
     e(  6 -  7) =      8.70302  eV     2   --> E    G_5 D_5   
     e(  8 -  8) =      9.48889  eV     1   --> B_2  G_4 D_2'  
     e(  9 -  9) =     13.86578  eV     1   --> B_2  G_4 D_2'  
     e( 10 - 10) =     13.87785  eV     1   --> A_2  G_2 D_1'  
     e( 11 - 11) =     13.88249  eV     1   --> A_1  G_1 D_1   
     e( 12 - 12) =     17.28202  eV     1   -->   ?

 **************************************************************************

 **************************************************************************

                    xk=(  -0.03333,   0.00000,   0.00000  )

     Band symmetry, C_4v (4mm)  point group:

     e(  1 -  1) =     -5.81826  eV     1   --> A_1  G_1 D_1   
     e(  2 -  2) =      6.13723  eV     1   --> B_2  G_4 D_2'  
     e(  3 -  4) =      6.14940  eV     2   --> E    G_5 D_5   
     e(  5 -  5) =      8.68327  eV     1   --> A_1  G_1 D_1   
     e(  6 -  7) =      8.72364  eV     2   --> E    G_5 D_5   
     e(  8 -  8) =      9.51364  eV     1   --> B_2  G_4 D_2'  
     e(  9 -  9) =     13.83405  eV     1   --> B_2  G_4 D_2'  
     e( 10 - 10) =     13.88189  eV     1   --> A_2  G_2 D_1'  
     e( 11 - 11) =     13.89928  eV     1   --> A_1  G_1 D_1   
     e( 12 - 12) =     17.28842  eV     1   -->   ?

 **************************************************************************

 **************************************************************************

                    xk=(  -0.05000,   0.00000,   0.00000  )

     Band symmetry, C_4v (4mm)  point group:

     e(  1 -  1) =     -5.81215  eV     1   --> A_1  G_1 D_1   
     e(  2 -  2) =      6.09599  eV     1   --> B_2  G_4 D_2'  
     e(  3 -  4) =      6.12308  eV     2   --> E    G_5 D_5   
     e(  5 -  5) =      8.66741  eV     1   --> A_1  G_1 D_1   
     e(  6 -  7) =      8.75741  eV     2   --> E    G_5 D_5   
     e(  8 -  8) =      9.55391  eV     1   --> B_2  G_4 D_2'  
     e(  9 -  9) =     13.78265  eV     1   --> B_2  G_4 D_2'  
     e( 10 - 10) =     13.88861  eV     1   --> A_2  G_2 D_1'  
     e( 11 - 11) =     13.92712  eV     1   --> A_1  G_1 D_1   
     e( 12 - 12) =     17.29911  eV     1   -->   ?

 **************************************************************************

 **************************************************************************

                    xk=(  -0.06667,   0.00000,   0.00000  )

     Band symmetry, C_4v (4mm)  point group:

     e(  1 -  1) =     -5.80360  eV     1   --> A_1  G_1 D_1   
     e(  2 -  2) =      6.03993  eV     1   --> B_2  G_4 D_2'  
     e(  3 -  4) =      6.08739  eV     2   --> E    G_5 D_5   
     e(  5 -  5) =      8.64554  eV     1   --> A_1  G_1 D_1   
     e(  6 -  7) =      8.80353  eV     2   --> E    G_5 D_5   
     e(  8 -  8) =      9.60833  eV     1   --> B_2  G_4 D_2'  
     e(  9 -  9) =     13.71359  eV     1   --> B_2  G_4 D_2'  
     e( 10 - 10) =     13.89803  eV     1   --> A_2  G_2 D_1'  
     e( 11 - 11) =     13.96576  eV     1   --> A_1  G_1 D_1   
     e( 12 - 12) =     17.31408  eV     1   -->   ?

 **************************************************************************

 **************************************************************************

                    xk=(  -0.08333,   0.00000,   0.00000  )

     Band symmetry, C_4v (4mm)  point group:

     e(  1 -  1) =     -5.79261  eV     1   --> A_1  G_1 D_1   
     e(  2 -  2) =      5.97049  eV     1   --> B_2  G_4 D_2'  
     e(  3 -  4) =      6.04331  eV     2   --> E    G_5 D_5   
     e(  5 -  5) =      8.61794  eV     1   --> A_1  G_1 D_1   
     e(  6 -  7) =      8.86099  eV     2   --> E    G_5 D_5   
     e(  8 -  8) =      9.67518  eV     1   --> B_2  G_4 D_2'  
     e(  9 -  9) =     13.62931  eV     1   --> B_2  G_4 D_2'  
     e( 10 - 10) =     13.91015  eV     1   --> A_2  G_2 D_1'  
     e( 11 - 11) =     14.01490  eV     1   --> A_1  G_1 D_1   
     e( 12 - 12) =     17.33331  eV     1   -->   ?

 **************************************************************************

 **************************************************************************

                    xk=(  -0.10000,   0.00000,   0.00000  )

     Band symmetry, C_4v (4mm)  point group:

     e(  1 -  1) =     -5.77918  eV     1   --> A_1  G_1 D_1   
     e(  2 -  2) =      5.88917  eV     1   --> B_2  G_4 D_2'  
     e(  3 -  4) =      5.99192  eV     2   --> E    G_5 D_5   
     e(  5 -  5) =      8.58498  eV     1   --> A_1  G_1 D_1   
     e(  6 -  7) =      8.92873  eV     2   --> E    G_5 D_5   
     e(  8 -  8) =      9.75251  eV     1   --> B_2  G_4 D_2'  
     e(  9 -  9) =     13.53260  eV     1   --> B_2  G_4 D_2'  
     e( 10 - 10) =     13.92495  eV     1   --> A_2  G_2 D_1'  
     e( 11 - 11) =     14.07418  eV     1   --> A_1  G_1 D_1   
     e( 12 - 12) =     17.35681  eV     1   -->   ?

 **************************************************************************

 **************************************************************************

                    xk=(  -0.11667,   0.00000,   0.00000  )

     Band symmetry, C_4v (4mm)  point group:

     e(  1 -  1) =     -5.76331  eV     1   --> A_1  G_1 D_1   
     e(  2 -  2) =      5.79750  eV     1   --> B_2  G_4 D_2'  
     e(  3 -  4) =      5.93431  eV     2   --> E    G_5 D_5   
     e(  5 -  5) =      8.54706  eV     1   --> A_1  G_1 D_1   
     e(  6 -  7) =      9.00564  eV     2   --> E    G_5 D_5   
     e(  8 -  8) =      9.83822  eV     1   --> B_2  G_4 D_2'  
     e(  9 -  9) =     13.42630  eV     1   --> B_2  G_4 D_2'  
     e( 10 - 10) =     13.94245  eV     1   --> A_2  G_2 D_1'  
     e( 11 - 11) =     14.14316  eV     1   --> A_1  G_1 D_1   
     e( 12 - 12) =     17.38456  eV     1   -->   ?

 **************************************************************************

 **************************************************************************

                    xk=(  -0.13333,   0.00000,   0.00000  )

     Band symmetry, C_4v (4mm)  point group:

     e(  1 -  1) =     -5.74501  eV     1   --> A_1  G_1 D_1   
     e(  2 -  2) =      5.69691  eV     1   --> B_2  G_4 D_2'  
     e(  3 -  4) =      5.87149  eV     2   --> E    G_5 D_5   
     e(  5 -  5) =      8.50462  eV     1   --> A_1  G_1 D_1   
     e(  6 -  7) =      9.09070  eV     2   --> E    G_5 D_5   
     e(  8 -  8) =      9.93011  eV     1   --> B_2  G_4 D_2'  
     e(  9 -  9) =     13.31334  eV     1   --> B_2  G_4 D_2'  
     e( 10 - 10) =     13.96263  eV     1   --> A_2  G_2 D_1'  
     e( 11 - 11) =     14.22139  eV     1   --> A_1  G_1 D_1   
     e( 12 - 12) =     17.41657  eV     1   -->   ?

 **************************************************************************

 **************************************************************************

                    xk=(  -0.15000,   0.00000,   0.00000  )

     Band symmetry, C_4v (4mm)  point group:

     e(  1 -  1) =     -5.72428  eV     1   --> A_1  G_1 D_1   
     e(  2 -  2) =      5.58871  eV     1   --> B_2  G_4 D_2'  
     e(  3 -  4) =      5.80443  eV     2   --> E    G_5 D_5   
     e(  5 -  5) =      8.45813  eV     1   --> A_1  G_1 D_1   
     e(  6 -  7) =      9.18293  eV     2   --> E    G_5 D_5   
     e(  8 -  8) =     10.02583  eV     1   --> B_2  G_4 D_2'  
     e(  9 -  9) =     13.19669  eV     1   --> B_2  G_4 D_2'  
     e( 10 - 10) =     13.98551  eV     1   --> A_2  G_2 D_1'  
     e( 11 - 11) =     14.30839  eV     1   --> A_1  G_1 D_1   
     e( 12 - 12) =     17.45281  eV     1   -->   ?

 **************************************************************************

 **************************************************************************

                    xk=(  -0.16667,   0.00000,   0.00000  )

     Band symmetry, C_4v (4mm)  point group:

     e(  1 -  1) =     -5.70112  eV     1   --> A_1  G_1 D_1   
     e(  2 -  2) =      5.47402  eV     1   --> B_2  G_4 D_2'  
     e(  3 -  4) =      5.73395  eV     2   --> E    G_5 D_5   
     e(  5 -  5) =      8.40805  eV     1   --> A_1  G_1 D_1   
     e(  6 -  7) =      9.28148  eV     2   --> E    G_5 D_5   
     e(  8 -  8) =     10.12284  eV     1   --> B_2  G_4 D_2'  
     e(  9 -  9) =     13.07944  eV     1   --> B_2  G_4 D_2'  
     e( 10 - 10) =     14.01108  eV     1   --> A_2  G_2 D_1'  
     e( 11 - 11) =     14.40368  eV     1   --> A_1  G_1 D_1   
     e( 12 - 12) =     17.49329  eV     1   -->   ?

 **************************************************************************

 **************************************************************************

                    xk=(  -0.18333,   0.00000,   0.00000  )

     Band symmetry, C_4v (4mm)  point group:

     e(  1 -  1) =     -5.67553  eV     1   --> A_1  G_1 D_1   
     e(  2 -  2) =      5.35385  eV     1   --> B_2  G_4 D_2'  
     e(  3 -  4) =      5.66082  eV     2   --> E    G_5 D_5   
     e(  5 -  5) =      8.35483  eV     1   --> A_1  G_1 D_1   
     e(  6 -  7) =      9.38560  eV     2   --> E    G_5 D_5   
     e(  8 -  8) =     10.21831  eV     1   --> B_2  G_4 D_2'  
     e(  9 -  9) =     12.96493  eV     1   --> B_2  G_4 D_2'  
     e( 10 - 10) =     14.03933  eV     1   --> A_2  G_2 D_1'  
     e( 11 - 11) =     14.50676  eV     1   --> A_1  G_1 D_1   
     e( 12 - 12) =     17.53796  eV     1   -->   ?

 **************************************************************************

 **************************************************************************

                    xk=(  -0.20000,   0.00000,   0.00000  )

     Band symmetry, C_4v (4mm)  point group:

     e(  1 -  1) =     -5.64752  eV     1   --> A_1  G_1 D_1   
     e(  2 -  2) =      5.22903  eV     1   --> B_2  G_4 D_2'  
     e(  3 -  4) =      5.58566  eV     2   --> E    G_5 D_5   
     e(  5 -  5) =      8.29893  eV     1   --> A_1  G_1 D_1   
     e(  6 -  7) =      9.49462  eV     2   --> E    G_5 D_5   
     e(  8 -  8) =     10.30894  eV     1   --> B_2  G_4 D_2'  
     e(  9 -  9) =     12.85686  eV     1   --> B_2  G_4 D_2'  
     e( 10 - 10) =     14.07027  eV     1   --> A_2  G_2 D_1'  
     e( 11 - 11) =     14.61716  eV     1   --> A_1  G_1 D_1   
     e( 12 - 12) =     17.58682  eV     1   -->   ?

 **************************************************************************

 **************************************************************************

                    xk=(  -0.21667,   0.00000,   0.00000  )

     Band symmetry, C_4v (4mm)  point group:

     e(  1 -  1) =     -5.61710  eV     1   --> A_1  G_1 D_1   
     e(  2 -  2) =      5.10028  eV     1   --> B_2  G_4 D_2'  
     e(  3 -  4) =      5.50904  eV     2   --> E    G_5 D_5   
     e(  5 -  5) =      8.24078  eV     1   --> A_1  G_1 D_1   
     e(  6 -  7) =      9.60797  eV     2   --> E    G_5 D_5   
     e(  8 -  8) =     10.39090  eV     1   --> B_2  G_4 D_2'  
     e(  9 -  9) =     12.75944  eV     1   --> B_2  G_4 D_2'  
     e( 10 - 10) =     14.10390  eV     1   --> A_2  G_2 D_1'  
     e( 11 - 11) =     14.73441  eV     1   --> A_1  G_1 D_1   
     e( 12 - 12) =     17.63984  eV     1   -->   ?

 **************************************************************************

 **************************************************************************

                    xk=(  -0.23333,   0.00000,   0.00000  )

     Band symmetry, C_4v (4mm)  point group:

     e(  1 -  1) =     -5.58426  eV     1   --> A_1  G_1 D_1   
     e(  2 -  2) =      4.96821  eV     1   --> B_2  G_4 D_2'  
     e(  3 -  4) =      5.43142  eV     2   --> E    G_5 D_5   
     e(  5 -  5) =      8.18079  eV     1   --> A_1  G_1 D_1   
     e(  6 -  7) =      9.72516  eV     2   --> E    G_5 D_5   
     e(  8 -  8) =     10.45976  eV     1   --> B_2  G_4 D_2'  
     e(  9 -  9) =     12.67743  eV     1   --> B_2  G_4 D_2'  
     e( 10 - 10) =     14.14022  eV     1   --> A_2  G_2 D_1'  
     e( 11 - 11) =     14.85806  eV     1   --> A_1  G_1 D_1   
     e( 12 - 12) =     17.69698  eV     1   -->   ?

 **************************************************************************

 **************************************************************************

                    xk=(  -0.25000,   0.00000,   0.00000  )

     Band symmetry, C_4v (4mm)  point group:

     e(  1 -  1) =     -5.54901  eV     1   --> A_1  G_1 D_1   
     e(  2 -  2) =      4.83331  eV     1   --> B_2  G_4 D_2'  
     e(  3 -  4) =      5.35321  eV     2   --> E    G_5 D_5   
     e(  5 -  5) =      8.11934  eV     1   --> A_1  G_1 D_1   
     e(  6 -  7) =      9.84578  eV     2   --> E    G_5 D_5   
     e(  8 -  8) =     10.51071  eV     1   --> B_2  G_4 D_2'  
     e(  9 -  9) =     12.61588  eV     1   --> B_2  G_4 D_2'  
     e( 10 - 10) =     14.17923  eV     1   --> A_2  G_2 D_1'  
     e( 11 - 11) =     14.98768  eV     1   --> A_1  G_1 D_1   
     e( 12 - 12) =     17.75820  eV     1   -->   ?

 **************************************************************************

 **************************************************************************

                    xk=(  -0.26667,   0.00000,   0.00000  )

     Band symmetry, C_4v (4mm)  point group:

     e(  1 -  1) =     -5.51137  eV     1   --> A_1  G_1 D_1   
     e(  2 -  2) =      4.69602  eV     1   --> B_2  G_4 D_2'  
     e(  3 -  4) =      5.27476  eV     2   --> E    G_5 D_5   
     e(  5 -  5) =      8.05679  eV     1   --> A_1  G_1 D_1   
     e(  6 -  7) =      9.96945  eV     2   --> E    G_5 D_5   
     e(  8 -  8) =     10.53924  eV     1   --> B_2  G_4 D_2'  
     e(  9 -  9) =     12.57958  eV     1   --> B_2  G_4 D_2'  
     e( 10 - 10) =     14.22092  eV     1   --> A_2  G_2 D_1'  
     e( 11 - 11) =     15.12286  eV     1   --> A_1  G_1 D_1   
     e( 12 - 12) =     17.82345  eV     1   -->   ?

 **************************************************************************

 **************************************************************************

                    xk=(  -0.28333,   0.00000,   0.00000  )

     Band symmetry, C_4v (4mm)  point group:

     e(  1 -  1) =     -5.47133  eV     1   --> A_1  G_1 D_1   
     e(  2 -  2) =      4.55668  eV     1   --> B_2  G_4 D_2'  
     e(  3 -  4) =      5.19636  eV     2   --> E    G_5 D_5   
     e(  5 -  5) =      7.99348  eV     1   --> A_1  G_1 D_1   
     e(  6 -  7) =     10.09585  eV     2   --> E    G_5 D_5   
     e(  8 -  8) =     10.54204  eV     1   --> B_2  G_4 D_2'  
     e(  9 -  9) =     12.57200  eV     1   --> B_2  G_4 D_2'  
     e( 10 - 10) =     14.26529  eV     1   --> A_2  G_2 D_1'  
     e( 11 - 11) =     15.26322  eV     1   --> A_1  G_1 D_1   
     e( 12 - 12) =     17.89267  eV     1   -->   ?

 **************************************************************************

 **************************************************************************

                    xk=(  -0.30000,   0.00000,   0.00000  )

     Band symmetry, C_4v (4mm)  point group:

     e(  1 -  1) =     -5.42889  eV     1   --> A_1  G_1 D_1   
     e(  2 -  2) =      4.41561  eV     1   --> B_2  G_4 D_2'  
     e(  3 -  4) =      5.11827  eV     2   --> E    G_5 D_5   
     e(  5 -  5) =      7.92970  eV     1   --> A_1  G_1 D_1   
     e(  6 -  7) =     10.22473  eV     2   --> E    G_5 D_5   
     e(  8 -  8) =     10.51804  eV     1   --> B_2  G_4 D_2'  
     e(  9 -  9) =     12.59441  eV     1   --> B_2  G_4 D_2'  
     e( 10 - 10) =     14.31234  eV     1   --> A_2  G_2 D_1'  
     e( 11 - 11) =     15.40837  eV     1   --> A_1  G_1 D_1   
     e( 12 - 12) =     17.96578  eV     1   -->   ?

 **************************************************************************

 **************************************************************************

                    xk=(  -0.31667,   0.00000,   0.00000  )

     Band symmetry, C_4v (4mm)  point group:

     e(  1 -  1) =     -5.38408  eV     1   --> A_1  G_1 D_1   
     e(  2 -  2) =      4.27304  eV     1   --> B_2  G_4 D_2'  
     e(  3 -  4) =      5.04071  eV     2   --> E    G_5 D_5   
     e(  5 -  5) =      7.86575  eV     1   --> A_1  G_1 D_1   
     e(  6 -  7) =     10.35583  eV     2   --> E    G_5 D_5   
     e(  8 -  8) =     10.46867  eV     1   --> B_2  G_4 D_2'  
     e(  9 -  9) =     12.64553  eV     1   --> B_2  G_4 D_2'  
     e( 10 - 10) =     14.36208  eV     1   --> A_2  G_2 D_1'  
     e( 11 - 11) =     15.55796  eV     1   --> A_1  G_1 D_1   
     e( 12 - 12) =     18.04269  eV     1   -->   ?

 **************************************************************************

 **************************************************************************

                    xk=(  -0.33333,   0.00000,   0.00000  )

     Band symmetry, C_4v (4mm)  point group:

     e(  1 -  1) =     -5.33689  eV     1   --> A_1  G_1 D_1   
     e(  2 -  2) =      4.12920  eV     1   --> B_2  G_4 D_2'  
     e(  3 -  4) =      4.96386  eV     2   --> E    G_5 D_5   
     e(  5 -  5) =      7.80188  eV     1   --> A_1  G_1 D_1   
     e(  6 -  6) =     10.39727  eV     1   --> B_2  G_4 D_2'  
     e(  7 -  8) =     10.48896  eV     2   --> E    G_5 D_5   
     e(  9 -  9) =     12.72214  eV     1   --> B_2  G_4 D_2'  
     e( 10 - 10) =     14.41450  eV     1   --> A_2  G_2 D_1'  
     e( 11 - 11) =     15.71166  eV     1   --> A_1  G_1 D_1   
     e( 12 - 12) =     18.12328  eV     1   -->   ?

 **************************************************************************

 **************************************************************************

                    xk=(  -0.35000,   0.00000,   0.00000  )

     Band symmetry, C_4v (4mm)  point group:

     e(  1 -  1) =     -5.28734  eV     1   --> A_1  G_1 D_1   
     e(  2 -  2) =      3.98427  eV     1   --> B_2  G_4 D_2'  
     e(  3 -  4) =      4.88789  eV     2   --> E    G_5 D_5   
     e(  5 -  5) =      7.73833  eV     1   --> A_1  G_1 D_1   
     e(  6 -  6) =     10.30805  eV     1   --> B_2  G_4 D_2'  
     e(  7 -  8) =     10.62393  eV     2   --> E    G_5 D_5   
     e(  9 -  9) =     12.82013  eV     1   --> B_2  G_4 D_2'  
     e( 10 - 10) =     14.46959  eV     1   --> A_2  G_2 D_1'  
     e( 11 - 11) =     15.86912  eV     1   --> A_1  G_1 D_1   
     e( 12 - 12) =     18.20742  eV     1   -->   ?

 **************************************************************************

 **************************************************************************

                    xk=(  -0.36667,   0.00000,   0.00000  )

     Band symmetry, C_4v (4mm)  point group:

     e(  1 -  1) =     -5.23543  eV     1   --> A_1  G_1 D_1   
     e(  2 -  2) =      3.83840  eV     1   --> B_2  G_4 D_2'  
     e(  3 -  4) =      4.81295  eV     2   --> E    G_5 D_5   
     e(  5 -  5) =      7.67531  eV     1   --> A_1  G_1 D_1   
     e(  6 -  6) =     10.20517  eV     1   --> B_2  G_4 D_2'  
     e(  7 -  8) =     10.76057  eV     2   --> E    G_5 D_5   
     e(  9 -  9) =     12.93542  eV     1   --> B_2  G_4 D_2'  
     e( 10 - 10) =     14.52737  eV     1   --> A_2  G_2 D_1'  
     e( 11 - 11) =     16.03003  eV     1   --> A_1  G_1 D_1   
     e( 12 - 12) =     18.29493  eV     1   -->   ?

 **************************************************************************

 **************************************************************************

                    xk=(  -0.38333,   0.00000,   0.00000  )

     Band symmetry, C_4v (4mm)  point group:

     e(  1 -  1) =     -5.18116  eV     1   --> A_1  G_1 D_1   
     e(  2 -  2) =      3.69172  eV     1   --> B_2  G_4 D_2'  
     e(  3 -  4) =      4.73915  eV     2   --> E    G_5 D_5   
     e(  5 -  5) =      7.61303  eV     1   --> A_1  G_1 D_1   
     e(  6 -  6) =     10.09226  eV     1   --> B_2  G_4 D_2'  
     e(  7 -  8) =     10.89876  eV     2   --> E    G_5 D_5   
     e(  9 -  9) =     13.06445  eV     1   --> B_2  G_4 D_2'  
     e( 10 - 10) =     14.58779  eV     1   --> A_2  G_2 D_1'  
     e( 11 - 11) =     16.19406  eV     1   --> A_1  G_1 D_1   
     e( 12 - 12) =     18.38561  eV     1   -->   ?

 **************************************************************************

 **************************************************************************

                    xk=(  -0.40000,   0.00000,   0.00000  )

     Band symmetry, C_4v (4mm)  point group:

     e(  1 -  1) =     -5.12456  eV     1   --> A_1  G_1 D_1   
     e(  2 -  2) =      3.54436  eV     1   --> B_2  G_4 D_2'  
     e(  3 -  4) =      4.66662  eV     2   --> E    G_5 D_5   
     e(  5 -  5) =      7.55167  eV     1   --> A_1  G_1 D_1   
     e(  6 -  6) =      9.97229  eV     1   --> B_2  G_4 D_2'  
     e(  7 -  8) =     11.03836  eV     2   --> E    G_5 D_5   
     e(  9 -  9) =     13.20431  eV     1   --> B_2  G_4 D_2'  
     e( 10 - 10) =     14.65091  eV     1   --> A_2  G_2 D_1'  
     e( 11 - 11) =     16.36090  eV     1   --> A_1  G_1 D_1   
     e( 12 - 12) =     18.47920  eV     1   -->   ?

 **************************************************************************

 **************************************************************************

                    xk=(  -0.41667,   0.00000,   0.00000  )

     Band symmetry, C_4v (4mm)  point group:

     e(  1 -  1) =     -5.06562  eV     1   --> A_1  G_1 D_1   
     e(  2 -  2) =      3.39642  eV     1   --> B_2  G_4 D_2'  
     e(  3 -  4) =      4.59544  eV     2   --> E    G_5 D_5   
     e(  5 -  5) =      7.49139  eV     1   --> A_1  G_1 D_1   
     e(  6 -  6) =      9.84758  eV     1   --> B_2  G_4 D_2'  
     e(  7 -  8) =     11.17926  eV     2   --> E    G_5 D_5   
     e(  9 -  9) =     13.35271  eV     1   --> B_2  G_4 D_2'  
     e( 10 - 10) =     14.71671  eV     1   --> A_2  G_2 D_1'  
     e( 11 - 11) =     16.53022  eV     1   --> A_1  G_1 D_1   
     e( 12 - 12) =     18.57539  eV     1   -->   ?

 **************************************************************************

 **************************************************************************

                    xk=(  -0.43333,   0.00000,   0.00000  )

     Band symmetry, C_4v (4mm)  point group:

     e(  1 -  1) =     -5.00436  eV     1   --> A_1  G_1 D_1   
     e(  2 -  2) =      3.24799  eV     1   --> B_2  G_4 D_2'  
     e(  3 -  4) =      4.52570  eV     2   --> E    G_5 D_5   
     e(  5 -  5) =      7.43235  eV     1   --> A_1  G_1 D_1   
     e(  6 -  6) =      9.71991  eV     1   --> B_2  G_4 D_2'  
     e(  7 -  8) =     11.32137  eV     2   --> E    G_5 D_5   
     e(  9 -  9) =     13.50786  eV     1   --> B_2  G_4 D_2'  
     e( 10 - 10) =     14.78517  eV     1   --> A_2  G_2 D_1'  
     e( 11 - 11) =     16.70169  eV     1   --> A_1  G_1 D_1   
     e( 12 - 12) =     18.67378  eV     1   -->   ?

 **************************************************************************

 **************************************************************************

                    xk=(  -0.45000,   0.00000,   0.00000  )

     Band symmetry, C_4v (4mm)  point group:

     e(  1 -  1) =     -4.94080  eV     1   --> A_1  G_1 D_1   
     e(  2 -  2) =      3.09914  eV     1   --> B_2  G_4 D_2'  
     e(  3 -  4) =      4.45748  eV     2   --> E    G_5 D_5   
     e(  5 -  5) =      7.37468  eV     1   --> A_1  G_1 D_1   
     e(  6 -  6) =      9.59067  eV     1   --> B_2  G_4 D_2'  
     e(  7 -  8) =     11.46459  eV     2   --> E    G_5 D_5   
     e(  9 -  9) =     13.66840  eV     1   --> B_2  G_4 D_2'  
     e( 10 - 10) =     14.85631  eV     1   --> A_2  G_2 D_1'  
     e( 11 - 11) =     16.87498  eV     1   --> A_1  G_1 D_1   
     e( 12 - 12) =     18.77388  eV     1   -->   ?

 **************************************************************************

 **************************************************************************

                    xk=(  -0.46667,   0.00000,   0.00000  )

     Band symmetry, C_4v (4mm)  point group:

     e(  1 -  1) =     -4.87493  eV     1   --> A_1  G_1 D_1   
     e(  2 -  2) =      2.94996  eV     1   --> B_2  G_4 D_2'  
     e(  3 -  4) =      4.39085  eV     2   --> E    G_5 D_5   
     e(  5 -  5) =      7.31851  eV     1   --> A_1  G_1 D_1   
     e(  6 -  6) =      9.46093  eV     1   --> B_2  G_4 D_2'  
     e(  7 -  8) =     11.60886  eV     2   --> E    G_5 D_5   
     e(  9 -  9) =     13.83324  eV     1   --> B_2  G_4 D_2'  
     e( 10 - 10) =     14.93011  eV     1   --> A_2  G_2 D_1'  
     e( 11 - 11) =     17.04971  eV     1   --> A_1  G_1 D_1   
     e( 12 - 12) =     18.87509  eV     1   -->   ?

 **************************************************************************

 **************************************************************************

                    xk=(  -0.48333,   0.00000,   0.00000  )

     Band symmetry, C_4v (4mm)  point group:

     e(  1 -  1) =     -4.80678  eV     1   --> A_1  G_1 D_1   
     e(  2 -  2) =      2.80051  eV     1   --> B_2  G_4 D_2'  
     e(  3 -  4) =      4.32586  eV     2   --> E    G_5 D_5   
     e(  5 -  5) =      7.26396  eV     1   --> A_1  G_1 D_1   
     e(  6 -  6) =      9.33152  eV     1   --> B_2  G_4 D_2'  
     e(  7 -  8) =     11.75409  eV     2   --> E    G_5 D_5   
     e(  9 -  9) =     14.00150  eV     1   --> B_2  G_4 D_2'  
     e( 10 - 10) =     15.00658  eV     1   --> A_2  G_2 D_1'  
     e( 11 - 11) =     17.22550  eV     1   --> A_1  G_1 D_1   
     e( 12 - 12) =     18.97663  eV     1   -->   ?

 **************************************************************************

 **************************************************************************

                    xk=(  -0.50000,   0.00000,   0.00000  )

     Band symmetry, C_4v (4mm)  point group:

     e(  1 -  1) =     -4.73636  eV     1   --> A_1  G_1 D_1   
     e(  2 -  2) =      2.65085  eV     1   --> B_2  G_4 D_2'  
     e(  3 -  4) =      4.26258  eV     2   --> E    G_5 D_5   
     e(  5 -  5) =      7.21114  eV     1   --> A_1  G_1 D_1   
     e(  6 -  6) =      9.20310  eV     1   --> B_2  G_4 D_2'  
     e(  7 -  8) =     11.90024  eV     2   --> E    G_5 D_5   
     e(  9 -  9) =     14.17253  eV     1   --> B_2  G_4 D_2'  
     e( 10 - 10) =     15.08571  eV     1   --> A_2  G_2 D_1'  
     e( 11 - 11) =     17.40194  eV     1   --> A_1  G_1 D_1   
     e( 12 - 12) =     19.07755  eV     1   -->   ?

 **************************************************************************

 **************************************************************************

                    xk=(  -0.51667,   0.00000,   0.00000  )

     Band symmetry, C_4v (4mm)  point group:

     e(  1 -  1) =     -4.66367  eV     1   --> A_1  G_1 D_1   
     e(  2 -  2) =      2.50104  eV     1   --> B_2  G_4 D_2'  
     e(  3 -  4) =      4.20104  eV     2   --> E    G_5 D_5   
     e(  5 -  5) =      7.16015  eV     1   --> A_1  G_1 D_1   
     e(  6 -  6) =      9.07620  eV     1   --> B_2  G_4 D_2'  
     e(  7 -  8) =     12.04725  eV     2   --> E    G_5 D_5   
     e(  9 -  9) =     14.34574  eV     1   --> B_2  G_4 D_2'  
     e( 10 - 10) =     15.16750  eV     1   --> A_2  G_2 D_1'  
     e( 11 - 11) =     17.57858  eV     1   --> A_1  G_1 D_1   
     e( 12 - 12) =     19.17661  eV     1   -->   ?

 **************************************************************************

 **************************************************************************

                    xk=(  -0.53333,   0.00000,   0.00000  )

     Band symmetry, C_4v (4mm)  point group:

     e(  1 -  1) =     -4.58874  eV     1   --> A_1  G_1 D_1   
     e(  2 -  2) =      2.35115  eV     1   --> B_2  G_4 D_2'  
     e(  3 -  4) =      4.14131  eV     2   --> E    G_5 D_5   
     e(  5 -  5) =      7.11109  eV     1   --> A_1  G_1 D_1   
     e(  6 -  6) =      8.95123  eV     1   --> B_2  G_4 D_2'  
     e(  7 -  8) =     12.19507  eV     2   --> E    G_5 D_5   
     e(  9 -  9) =     14.52066  eV     1   --> B_2  G_4 D_2'  
     e( 10 - 10) =     15.25196  eV     1   --> A_2  G_2 D_1'  
     e( 11 - 11) =     17.75491  eV     1   --> A_1  G_1 D_1   
     e( 12 - 12) =     19.27229  eV     1   -->   ?

 **************************************************************************

 **************************************************************************

                    xk=(  -0.55000,   0.00000,   0.00000  )

     Band symmetry, C_4v (4mm)  point group:

     e(  1 -  1) =     -4.51158  eV     1   --> A_1  G_1 D_1   
     e(  2 -  2) =      2.20122  eV     1   --> B_2  G_4 D_2'  
     e(  3 -  4) =      4.08341  eV     2   --> E    G_5 D_5   
     e(  5 -  5) =      7.06403  eV     1   --> A_1  G_1 D_1   
     e(  6 -  6) =      8.82852  eV     1   --> B_2  G_4 D_2'  
     e(  7 -  8) =     12.34367  eV     2   --> E    G_5 D_5   
     e(  9 -  9) =     14.69687  eV     1   --> B_2  G_4 D_2'  
     e( 10 - 10) =     15.33906  eV     1   --> A_2  G_2 D_1'  
     e( 11 - 11) =     17.93037  eV     1   --> A_1  G_1 D_1   
     e( 12 - 12) =     19.36262  eV     1   -->   ?

 **************************************************************************

 **************************************************************************

                    xk=(  -0.56667,   0.00000,   0.00000  )

     Band symmetry, C_4v (4mm)  point group:

     e(  1 -  1) =     -4.43220  eV     1   --> A_1  G_1 D_1   
     e(  2 -  2) =      2.05131  eV     1   --> B_2  G_4 D_2'  
     e(  3 -  4) =      4.02738  eV     2   --> E    G_5 D_5   
     e(  5 -  5) =      7.01906  eV     1   --> A_1  G_1 D_1   
     e(  6 -  6) =      8.70835  eV     1   --> B_2  G_4 D_2'  
     e(  7 -  8) =     12.49299  eV     2   --> E    G_5 D_5   
     e(  9 -  9) =     14.87404  eV     1   --> B_2  G_4 D_2'  
     e( 10 - 10) =     15.42882  eV     1   --> A_2  G_2 D_1'  
     e( 11 - 11) =     18.10434  eV     1   --> A_1  G_1 D_1   
     e( 12 - 12) =     19.44521  eV     1   -->   ?

 **************************************************************************

 **************************************************************************

                    xk=(  -0.58333,   0.00000,   0.00000  )

     Band symmetry, C_4v (4mm)  point group:

     e(  1 -  1) =     -4.35061  eV     1   --> A_1  G_1 D_1   
     e(  2 -  2) =      1.90149  eV     1   --> B_2  G_4 D_2'  
     e(  3 -  4) =      3.97325  eV     2   --> E    G_5 D_5   
     e(  5 -  5) =      6.97627  eV     1   --> A_1  G_1 D_1   
     e(  6 -  6) =      8.59095  eV     1   --> B_2  G_4 D_2'  
     e(  7 -  8) =     12.64303  eV     2   --> E    G_5 D_5   
     e(  9 -  9) =     15.05187  eV     1   --> B_2  G_4 D_2'  
     e( 10 - 10) =     15.52122  eV     1   --> A_2  G_2 D_1'  
     e( 11 - 11) =     18.27613  eV     1   --> A_1  G_1 D_1   
     e( 12 - 12) =     19.51721  eV     1   -->   ?

 **************************************************************************

 **************************************************************************

                    xk=(  -0.60000,   0.00000,   0.00000  )

     Band symmetry, C_4v (4mm)  point group:

     e(  1 -  1) =     -4.26685  eV     1   --> A_1  G_1 D_1   
     e(  2 -  2) =      1.75179  eV     1   --> B_2  G_4 D_2'  
     e(  3 -  4) =      3.92107  eV     2   --> E    G_5 D_5   
     e(  5 -  5) =      6.93570  eV     1   --> A_1  G_1 D_1   
     e(  6 -  6) =      8.47650  eV     1   --> B_2  G_4 D_2'  
     e(  7 -  8) =     12.79373  eV     2   --> E    G_5 D_5   
     e(  9 -  9) =     15.23005  eV     1   --> B_2  G_4 D_2'  
     e( 10 - 10) =     15.61627  eV     1   --> A_2  G_2 D_1'  
     e( 11 - 11) =     18.44495  eV     1   --> A_1  G_1 D_1   
     e( 12 - 12) =     19.57528  eV     1   -->   ?

 **************************************************************************

 **************************************************************************

                    xk=(  -0.61667,   0.00000,   0.00000  )

     Band symmetry, C_4v (4mm)  point group:

     e(  1 -  1) =     -4.18091  eV     1   --> A_1  G_1 D_1   
     e(  2 -  2) =      1.60227  eV     1   --> B_2  G_4 D_2'  
     e(  3 -  4) =      3.87084  eV     2   --> E    G_5 D_5   
     e(  5 -  5) =      6.89744  eV     1   --> A_1  G_1 D_1   
     e(  6 -  6) =      8.36514  eV     1   --> B_2  G_4 D_2'  
     e(  7 -  8) =     12.94509  eV     2   --> E    G_5 D_5   
     e(  9 -  9) =     15.40835  eV     1   --> B_2  G_4 D_2'  
     e( 10 - 10) =     15.71397  eV     1   --> A_2  G_2 D_1'  
     e( 11 - 11) =     18.60990  eV     1   --> A_1  G_1 D_1   
     e( 12 - 12) =     19.61591  eV     1   -->   ?

 **************************************************************************

 **************************************************************************

                    xk=(  -0.63333,   0.00000,   0.00000  )

     Band symmetry, C_4v (4mm)  point group:

     e(  1 -  1) =     -4.09283  eV     1   --> A_1  G_1 D_1   
     e(  2 -  2) =      1.45299  eV     1   --> B_2  G_4 D_2'  
     e(  3 -  4) =      3.82261  eV     2   --> E    G_5 D_5   
     e(  5 -  5) =      6.86154  eV     1   --> A_1  G_1 D_1   
     e(  6 -  6) =      8.25699  eV     1   --> B_2  G_4 D_2'  
     e(  7 -  8) =     13.09707  eV     2   --> E    G_5 D_5   
     e(  9 -  9) =     15.58656  eV     1   --> B_2  G_4 D_2'  
     e( 10 - 10) =     15.81431  eV     1   --> A_2  G_2 D_1'  
     e( 11 - 11) =     18.77000  eV     1   --> A_1  G_1 D_1   
     e( 12 - 12) =     19.63580  eV     1   -->   ?

 **************************************************************************

 **************************************************************************

                    xk=(  -0.65000,   0.00000,   0.00000  )

     Band symmetry, C_4v (4mm)  point group:

     e(  1 -  1) =     -4.00262  eV     1   --> A_1  G_1 D_1   
     e(  2 -  2) =      1.30400  eV     1   --> B_2  G_4 D_2'  
     e(  3 -  4) =      3.77638  eV     2   --> E    G_5 D_5   
     e(  5 -  5) =      6.82806  eV     1   --> A_1  G_1 D_1   
     e(  6 -  6) =      8.15217  eV     1   --> B_2  G_4 D_2'  
     e(  7 -  8) =     13.24967  eV     2   --> E    G_5 D_5   
     e(  9 -  9) =     15.76445  eV     1   --> B_2  G_4 D_2'  
     e( 10 - 10) =     15.91728  eV     1   --> A_2  G_2 D_1'  
     e( 11 - 11) =     18.92412  eV     1   --> A_1  G_1 D_1   
     e( 12 - 12) =     19.63239  eV     1   -->   ?

 **************************************************************************

 **************************************************************************

                    xk=(  -0.66667,   0.00000,   0.00000  )

     Band symmetry, C_4v (4mm)  point group:

     e(  1 -  1) =     -3.91030  eV     1   --> A_1  G_1 D_1   
     e(  2 -  2) =      1.15536  eV     1   --> B_2  G_4 D_2'  
     e(  3 -  4) =      3.73219  eV     2   --> E    G_5 D_5   
     e(  5 -  5) =      6.79707  eV     1   --> A_1  G_1 D_1   
     e(  6 -  6) =      8.05074  eV     1   --> B_2  G_4 D_2'  
     e(  7 -  8) =     13.40285  eV     2   --> E    G_5 D_5   
     e(  9 -  9) =     15.94183  eV     1   --> B_2  G_4 D_2'  
     e( 10 - 10) =     16.02289  eV     1   --> A_2  G_2 D_1'  
     e( 11 - 11) =     19.07103  eV     1   --> A_1  G_1 D_1   
     e( 12 - 12) =     19.60442  eV     1   -->   ?

 **************************************************************************

 **************************************************************************

                    xk=(  -0.68333,   0.00000,   0.00000  )

     Band symmetry, C_4v (4mm)  point group:

     e(  1 -  1) =     -3.81589  eV     1   --> A_1  G_1 D_1   
     e(  2 -  2) =      1.00712  eV     1   --> B_2  G_4 D_2'  
     e(  3 -  4) =      3.69005  eV     2   --> E    G_5 D_5   
     e(  5 -  5) =      6.76860  eV     1   --> A_1  G_1 D_1   
     e(  6 -  6) =      7.95277  eV     1   --> B_2  G_4 D_2'  
     e(  7 -  8) =     13.55661  eV     2   --> E    G_5 D_5   
     e(  9 -  9) =     16.11852  eV     1   --> B_2  G_4 D_2'  
     e( 10 - 10) =     16.13113  eV     1   --> A_2  G_2 D_1'  
     e( 11 - 11) =     19.20938  eV     1   --> A_1  G_1 D_1   
     e( 12 - 12) =     19.55227  eV     1   -->   ?

 **************************************************************************

 **************************************************************************

                    xk=(  -0.70000,   0.00000,   0.00000  )

     Band symmetry, C_4v (4mm)  point group:

     e(  1 -  1) =     -3.71942  eV     1   --> A_1  G_1 D_1   
     e(  2 -  2) =      0.85933  eV     1   --> B_2  G_4 D_2'  
     e(  3 -  4) =      3.64998  eV     2   --> E    G_5 D_5   
     e(  5 -  5) =      6.74272  eV     1   --> A_1  G_1 D_1   
     e(  6 -  6) =      7.85831  eV     1   --> B_2  G_4 D_2'  
     e(  7 -  8) =     13.71091  eV     2   --> E    G_5 D_5   
     e(  9 -  9) =     16.24199  eV     1   --> A_2  G_2 D_1'  
     e( 10 - 10) =     16.29435  eV     1   --> B_2  G_4 D_2'  
     e( 11 - 11) =     19.33770  eV     1   --> A_1  G_1 D_1   
     e( 12 - 12) =     19.47773  eV     1   -->   ?

 **************************************************************************

 **************************************************************************

                    xk=(  -0.71667,   0.00000,   0.00000  )

     Band symmetry, C_4v (4mm)  point group:

     e(  1 -  1) =     -3.62089  eV     1   --> A_1  G_1 D_1   
     e(  2 -  2) =      0.71206  eV     1   --> B_2  G_4 D_2'  
     e(  3 -  4) =      3.61199  eV     2   --> E    G_5 D_5   
     e(  5 -  5) =      6.71947  eV     1   --> A_1  G_1 D_1   
     e(  6 -  6) =      7.76739  eV     1   --> B_2  G_4 D_2'  
     e(  7 -  8) =     13.86573  eV     2   --> E    G_5 D_5   
     e(  9 -  9) =     16.35548  eV     1   --> A_2  G_2 D_1'  
     e( 10 - 10) =     16.46915  eV     1   --> B_2  G_4 D_2'  
     e( 11 - 12) =     19.38362  eV     2   --> E    G_5 D_5   

 **************************************************************************

 **************************************************************************

                    xk=(  -0.73333,   0.00000,   0.00000  )

     Band symmetry, C_4v (4mm)  point group:

     e(  1 -  1) =     -3.52035  eV     1   --> A_1  G_1 D_1   
     e(  2 -  2) =      0.56535  eV     1   --> B_2  G_4 D_2'  
     e(  3 -  4) =      3.57611  eV     2   --> E    G_5 D_5   
     e(  5 -  5) =      6.69890  eV     1   --> A_1  G_1 D_1   
     e(  6 -  6) =      7.68005  eV     1   --> B_2  G_4 D_2'  
     e(  7 -  8) =     14.02105  eV     2   --> E    G_5 D_5   
     e(  9 -  9) =     16.47159  eV     1   --> A_2  G_2 D_1'  
     e( 10 - 10) =     16.64275  eV     1   --> B_2  G_4 D_2'  
     e( 11 - 12) =     19.27309  eV     2   --> E    G_5 D_5   

 **************************************************************************

 **************************************************************************

                    xk=(  -0.75000,   0.00000,   0.00000  )

     Band symmetry, C_4v (4mm)  point group:

     e(  1 -  1) =     -3.41781  eV     1   --> A_1  G_1 D_1   
     e(  2 -  2) =      0.41927  eV     1   --> B_2  G_4 D_2'  
     e(  3 -  4) =      3.54234  eV     2   --> E    G_5 D_5   
     e(  5 -  5) =      6.68105  eV     1   --> A_1  G_1 D_1   
     e(  6 -  6) =      7.59631  eV     1   --> B_2  G_4 D_2'  
     e(  7 -  8) =     14.17682  eV     2   --> E    G_5 D_5   
     e(  9 -  9) =     16.59031  eV     1   --> A_2  G_2 D_1'  
     e( 10 - 10) =     16.81501  eV     1   --> B_2  G_4 D_2'  
     e( 11 - 12) =     19.14927  eV     2   --> E    G_5 D_5   

 **************************************************************************

 **************************************************************************

                    xk=(  -0.76667,   0.00000,   0.00000  )

     Band symmetry, C_4v (4mm)  point group:

     e(  1 -  1) =     -3.31330  eV     1   --> A_1  G_1 D_1   
     e(  2 -  2) =      0.27386  eV     1   --> B_2  G_4 D_2'  
     e(  3 -  4) =      3.51069  eV     2   --> E    G_5 D_5   
     e(  5 -  5) =      6.66597  eV     1   --> A_1  G_1 D_1   
     e(  6 -  6) =      7.51616  eV     1   --> B_2  G_4 D_2'  
     e(  7 -  8) =     14.33299  eV     2   --> E    G_5 D_5   
     e(  9 -  9) =     16.71164  eV     1   --> A_2  G_2 D_1'  
     e( 10 - 10) =     16.98575  eV     1   --> B_2  G_4 D_2'  
     e( 11 - 12) =     19.01497  eV     2   --> E    G_5 D_5   

 **************************************************************************

 **************************************************************************

                    xk=(  -0.78333,   0.00000,   0.00000  )

     Band symmetry, C_4v (4mm)  point group:

     e(  1 -  1) =     -3.20684  eV     1   --> A_1  G_1 D_1   
     e(  2 -  2) =      0.12919  eV     1   --> B_2  G_4 D_2'  
     e(  3 -  4) =      3.48118  eV     2   --> E    G_5 D_5   
     e(  5 -  5) =      6.65370  eV     1   --> A_1  G_1 D_1   
     e(  6 -  6) =      7.43963  eV     1   --> B_2  G_4 D_2'  
     e(  7 -  8) =     14.48950  eV     2   --> E    G_5 D_5   
     e(  9 -  9) =     16.83558  eV     1   --> A_2  G_2 D_1'  
     e( 10 - 10) =     17.15483  eV     1   --> B_2  G_4 D_2'  
     e( 11 - 12) =     18.87259  eV     2   --> E    G_5 D_5   

 **************************************************************************

 **************************************************************************

                    xk=(  -0.80000,   0.00000,   0.00000  )

     Band symmetry, C_4v (4mm)  point group:

     e(  1 -  1) =     -3.09847  eV     1   --> A_1  G_1 D_1   
     e(  2 -  2) =     -0.01469  eV     1   --> B_2  G_4 D_2'  
     e(  3 -  4) =      3.45382  eV     2   --> E    G_5 D_5   
     e(  5 -  5) =      6.64428  eV     1   --> A_1  G_1 D_1   
     e(  6 -  6) =      7.36670  eV     1   --> B_2  G_4 D_2'  
     e(  7 -  8) =     14.64625  eV     2   --> E    G_5 D_5   
     e(  9 -  9) =     16.96211  eV     1   --> A_2  G_2 D_1'  
     e( 10 - 10) =     17.32209  eV     1   --> B_2  G_4 D_2'  
     e( 11 - 12) =     18.72412  eV     2   --> E    G_5 D_5   

 **************************************************************************

 **************************************************************************

                    xk=(  -0.81667,   0.00000,   0.00000  )

     Band symmetry, C_4v (4mm)  point group:

     e(  1 -  1) =     -2.98821  eV     1   --> A_1  G_1 D_1   
     e(  2 -  2) =     -0.15772  eV     1   --> B_2  G_4 D_2'  
     e(  3 -  4) =      3.42862  eV     2   --> E    G_5 D_5   
     e(  5 -  5) =      6.63775  eV     1   --> A_1  G_1 D_1   
     e(  6 -  6) =      7.29737  eV     1   --> B_2  G_4 D_2'  
     e(  7 -  8) =     14.80313  eV     2   --> E    G_5 D_5   
     e(  9 -  9) =     17.09124  eV     1   --> A_2  G_2 D_1'  
     e( 10 - 10) =     17.48735  eV     1   --> B_2  G_4 D_2'  
     e( 11 - 12) =     18.57123  eV     2   --> E    G_5 D_5   

 **************************************************************************

 **************************************************************************

                    xk=(  -0.83333,   0.00000,   0.00000  )

     Band symmetry, C_4v (4mm)  point group:

     e(  1 -  1) =     -2.87609  eV     1   --> A_1  G_1 D_1   
     e(  2 -  2) =     -0.29985  eV     1   --> B_2  G_4 D_2'  
     e(  3 -  4) =      3.40558  eV     2   --> E    G_5 D_5   
     e(  5 -  5) =      6.63415  eV     1   --> A_1  G_1 D_1   
     e(  6 -  6) =      7.23163  eV     1   --> B_2  G_4 D_2'  
     e(  7 -  8) =     14.95996  eV     2   --> E    G_5 D_5   
     e(  9 -  9) =     17.22296  eV     1   --> A_2  G_2 D_1'  
     e( 10 - 10) =     17.65044  eV     1   --> B_2  G_4 D_2'  
     e( 11 - 12) =     18.41529  eV     2   --> E    G_5 D_5   

 **************************************************************************

 **************************************************************************

                    xk=(  -0.85000,   0.00000,   0.00000  )

     Band symmetry, C_4v (4mm)  point group:

     e(  1 -  1) =     -2.76214  eV     1   --> A_1  G_1 D_1   
     e(  2 -  2) =     -0.44103  eV     1   --> B_2  G_4 D_2'  
     e(  3 -  4) =      3.38472  eV     2   --> E    G_5 D_5   
     e(  5 -  5) =      6.63352  eV     1   --> A_1  G_1 D_1   
     e(  6 -  6) =      7.16947  eV     1   --> B_2  G_4 D_2'  
     e(  7 -  8) =     15.11648  eV     2   --> E    G_5 D_5   
     e(  9 -  9) =     17.35726  eV     1   --> A_2  G_2 D_1'  
     e( 10 - 10) =     17.81117  eV     1   --> B_2  G_4 D_2'  
     e( 11 - 12) =     18.25751  eV     2   --> E    G_5 D_5   

 **************************************************************************

 **************************************************************************

                    xk=(  -0.86667,   0.00000,   0.00000  )

     Band symmetry, C_4v (4mm)  point group:

     e(  1 -  1) =     -2.64639  eV     1   --> A_1  G_1 D_1   
     e(  2 -  2) =     -0.58120  eV     1   --> B_2  G_4 D_2'  
     e(  3 -  4) =      3.36603  eV     2   --> E    G_5 D_5   
     e(  5 -  5) =      6.63589  eV     1   --> A_1  G_1 D_1   
     e(  6 -  6) =      7.11087  eV     1   --> B_2  G_4 D_2'  
     e(  7 -  8) =     15.27235  eV     2   --> E    G_5 D_5   
     e(  9 -  9) =     17.49414  eV     1   --> A_2  G_2 D_1'  
     e( 10 - 10) =     17.96933  eV     1   --> B_2  G_4 D_2'  
     e( 11 - 12) =     18.09901  eV     2   --> E    G_5 D_5   

 **************************************************************************

 **************************************************************************

                    xk=(  -0.88333,   0.00000,   0.00000  )

     Band symmetry, C_4v (4mm)  point group:

     e(  1 -  1) =     -2.52888  eV     1   --> A_1  G_1 D_1   
     e(  2 -  2) =     -0.72031  eV     1   --> B_2  G_4 D_2'  
     e(  3 -  4) =      3.34953  eV     2   --> E    G_5 D_5   
     e(  5 -  5) =      6.64130  eV     1   --> A_1  G_1 D_1   
     e(  6 -  6) =      7.05581  eV     1   --> B_2  G_4 D_2'  
     e(  7 -  8) =     15.42701  eV     2   --> E    G_5 D_5   
     e(  9 -  9) =     17.63359  eV     1   --> A_2  G_2 D_1'  
     e( 10 - 11) =     17.94094  eV     2   --> E    G_5 D_5   
     e( 12 - 12) =     18.12467  eV     1   --> B_2  G_4 D_2'  

 **************************************************************************

 **************************************************************************

                    xk=(  -0.90000,   0.00000,   0.00000  )

     Band symmetry, C_4v (4mm)  point group:

     e(  1 -  1) =     -2.40965  eV     1   --> A_1  G_1 D_1   
     e(  2 -  2) =     -0.85830  eV     1   --> B_2  G_4 D_2'  
     e(  3 -  4) =      3.33522  eV     2   --> E    G_5 D_5   
     e(  5 -  5) =      6.64980  eV     1   --> A_1  G_1 D_1   
     e(  6 -  6) =      7.00426  eV     1   --> B_2  G_4 D_2'  
     e(  7 -  8) =     15.57960  eV     2   --> E    G_5 D_5   
     e(  9 -  9) =     17.77561  eV     1   --> A_2  G_2 D_1'  
     e( 10 - 11) =     17.78461  eV     2   --> E    G_5 D_5   
     e( 12 - 12) =     18.27695  eV     1   --> B_2  G_4 D_2'  

 **************************************************************************

 **************************************************************************

                    xk=(  -0.91667,   0.00000,   0.00000  )

     Band symmetry, C_4v (4mm)  point group:

     e(  1 -  1) =     -2.28872  eV     1   --> A_1  G_1 D_1   
     e(  2 -  2) =     -0.99512  eV     1   --> B_2  G_4 D_2'  
     e(  3 -  4) =      3.32310  eV     2   --> E    G_5 D_5   
     e(  5 -  5) =      6.66140  eV     1   --> A_1  G_1 D_1   
     e(  6 -  6) =      6.95621  eV     1   --> B_2  G_4 D_2'  
     e(  7 -  8) =     15.72871  eV     2   --> E    G_5 D_5   
     e(  9 - 10) =     17.63180  eV     2   --> E    G_5 D_5   
     e( 11 - 11) =     17.92018  eV     1   --> A_2  G_2 D_1'  
     e( 12 - 12) =     18.42585  eV     1   --> B_2  G_4 D_2'  

 **************************************************************************

 **************************************************************************

                    xk=(  -0.93333,   0.00000,   0.00000  )

     Band symmetry, C_4v (4mm)  point group:

     e(  1 -  1) =     -2.16614  eV     1   --> A_1  G_1 D_1   
     e(  2 -  2) =     -1.13073  eV     1   --> B_2  G_4 D_2'  
     e(  3 -  4) =      3.31319  eV     2   --> E    G_5 D_5   
     e(  5 -  5) =      6.67616  eV     1   --> A_1  G_1 D_1   
     e(  6 -  6) =      6.91162  eV     1   --> B_2  G_4 D_2'  
     e(  7 -  8) =     15.87194  eV     2   --> E    G_5 D_5   
     e(  9 - 10) =     17.48519  eV     2   --> E    G_5 D_5   
     e( 11 - 11) =     18.06730  eV     1   --> A_2  G_2 D_1'  
     e( 12 - 12) =     18.57103  eV     1   --> B_2  G_4 D_2'  

 **************************************************************************

 **************************************************************************

                    xk=(  -0.95000,   0.00000,   0.00000  )

     Band symmetry, C_4v (4mm)  point group:

     e(  1 -  1) =     -2.04194  eV     1   --> A_1  G_1 D_1   
     e(  2 -  2) =     -1.26507  eV     1   --> B_2  G_4 D_2'  
     e(  3 -  4) =      3.30547  eV     2   --> E    G_5 D_5   
     e(  5 -  5) =      6.69410  eV     1   --> A_1  G_1 D_1   
     e(  6 -  6) =      6.87047  eV     1   --> B_2  G_4 D_2'  
     e(  7 -  8) =     16.00497  eV     2   --> E    G_5 D_5   
     e(  9 - 10) =     17.34933  eV     2   --> E    G_5 D_5   
     e( 11 - 11) =     18.21697  eV     1   --> A_2  G_2 D_1'  
     e( 12 - 12) =     18.71210  eV     1   --> B_2  G_4 D_2'  

 **************************************************************************

 **************************************************************************

                    xk=(  -0.96667,   0.00000,   0.00000  )

     Band symmetry, C_4v (4mm)  point group:

     e(  1 -  1) =     -1.91616  eV     1   --> A_1  G_1 D_1   
     e(  2 -  2) =     -1.39810  eV     1   --> B_2  G_4 D_2'  
     e(  3 -  4) =      3.29995  eV     2   --> E    G_5 D_5   
     e(  5 -  5) =      6.71526  eV     1   --> A_1  G_1 D_1   
     e(  6 -  6) =      6.83273  eV     1   --> B_2  G_4 D_2'  
     e(  7 -  8) =     16.11978  eV     2   --> E    G_5 D_5   
     e(  9 - 10) =     17.23241  eV     2   --> E    G_5 D_5   
     e( 11 - 11) =     18.36917  eV     1   --> A_2  G_2 D_1'  
     e( 12 - 12) =     18.84859  eV     1   --> B_2  G_4 D_2'  

 **************************************************************************

 **************************************************************************

                    xk=(  -0.98333,   0.00000,   0.00000  )

     Band symmetry, C_4v (4mm)  point group:

     e(  1 -  1) =     -1.78884  eV     1   --> A_1  G_1 D_1   
     e(  2 -  2) =     -1.52977  eV     1   --> B_2  G_4 D_2'  
     e(  3 -  4) =      3.29665  eV     2   --> E    G_5 D_5   
     e(  5 -  5) =      6.73967  eV     1   --> A_1  G_1 D_1   
     e(  6 -  6) =      6.79837  eV     1   --> B_2  G_4 D_2'  
     e(  7 -  8) =     16.20219  eV     2   --> E    G_5 D_5   
     e(  9 - 10) =     17.14868  eV     2   --> E    G_5 D_5   
     e( 11 - 11) =     18.52390  eV     1   --> A_2  G_2 D_1'  
     e( 12 - 12) =     18.84091  eV     1   --> B_1  G_3 D_2   

 **************************************************************************

 **************************************************************************

                    xk=(  -1.00000,   0.00000,   0.00000  )

     zone border point and non-symmorphic group 
     symmetry decomposition not available

 **************************************************************************

 **************************************************************************

                    xk=(  -1.00000,   0.01667,   0.01667  )

     zone border point and non-symmorphic group 
     symmetry decomposition not available

 **************************************************************************

 **************************************************************************

                    xk=(  -1.00000,   0.03333,   0.03333  )

     zone border point and non-symmorphic group 
     symmetry decomposition not available

 **************************************************************************

 **************************************************************************

                    xk=(  -1.00000,   0.05000,   0.05000  )

     zone border point and non-symmorphic group 
     symmetry decomposition not available

 **************************************************************************

 **************************************************************************

                    xk=(  -1.00000,   0.06667,   0.06667  )

     zone border point and non-symmorphic group 
     symmetry decomposition not available

 **************************************************************************

 **************************************************************************

                    xk=(  -1.00000,   0.08333,   0.08333  )

     zone border point and non-symmorphic group 
     symmetry decomposition not available

 **************************************************************************

 **************************************************************************

                    xk=(  -1.00000,   0.10000,   0.10000  )

     zone border point and non-symmorphic group 
     symmetry decomposition not available

 **************************************************************************

 **************************************************************************

[...]
     e(  5 -  5) =      9.18895  eV     1   --> B_1  D_3  S_3  
     e(  6 -  6) =      9.41632  eV     1   --> B_2  D_4  S_4  
     e(  7 -  7) =      9.65511  eV     1   --> A_1  D_1  S_1  
     e(  8 -  8) =     11.73159  eV     1   --> B_1  D_3  S_3  
     e(  9 -  9) =     12.32338  eV     1   --> A_2  D_2  S_2  
     e( 10 - 10) =     14.62100  eV     1   --> B_1  D_3  S_3  
     e( 11 - 11) =     16.05510  eV     1   --> A_1  D_1  S_1  
     e( 12 - 12) =     17.31208  eV     1   --> B_1  D_3  S_3  

 **************************************************************************

 **************************************************************************

                    xk=(  -0.26667,   0.00000,   0.26667  )

     Band symmetry, C_2v (mm2)  point group:

     e(  1 -  1) =     -5.20666  eV     1   --> A_1  D_1  S_1  
     e(  2 -  2) =      3.26148  eV     1   --> B_1  D_3  S_3  
     e(  3 -  3) =      4.35471  eV     1   --> A_1  D_1  S_1  
     e(  4 -  4) =      5.83205  eV     1   --> A_2  D_2  S_2  
     e(  5 -  5) =      9.18309  eV     1   --> B_1  D_3  S_3  
     e(  6 -  6) =      9.33429  eV     1   --> B_2  D_4  S_4  
     e(  7 -  7) =      9.56277  eV     1   --> A_1  D_1  S_1  
     e(  8 -  8) =     11.70437  eV     1   --> B_1  D_3  S_3  
     e(  9 -  9) =     12.38309  eV     1   --> A_2  D_2  S_2  
     e( 10 - 10) =     14.37272  eV     1   --> B_1  D_3  S_3  
     e( 11 - 11) =     15.89317  eV     1   --> A_1  D_1  S_1  
     e( 12 - 12) =     17.25469  eV     1   --> B_1  D_3  S_3  

 **************************************************************************

 **************************************************************************

                    xk=(  -0.25000,   0.00000,   0.25000  )

     Band symmetry, C_2v (mm2)  point group:

     e(  1 -  1) =     -5.28027  eV     1   --> A_1  D_1  S_1  
     e(  2 -  2) =      3.47490  eV     1   --> B_1  D_3  S_3  
     e(  3 -  3) =      4.51512  eV     1   --> A_1  D_1  S_1  
     e(  4 -  4) =      5.87887  eV     1   --> A_2  D_2  S_2  
     e(  5 -  5) =      9.17177  eV     1   --> B_1  D_3  S_3  
     e(  6 -  6) =      9.25718  eV     1   --> B_2  D_4  S_4  
     e(  7 -  7) =      9.47439  eV     1   --> A_1  D_1  S_1  
     e(  8 -  8) =     11.65496  eV     1   --> B_1  D_3  S_3  
     e(  9 -  9) =     12.45361  eV     1   --> A_2  D_2  S_2  
     e( 10 - 10) =     14.15952  eV     1   --> B_1  D_3  S_3  
     e( 11 - 11) =     15.72400  eV     1   --> A_1  D_1  S_1  
     e( 12 - 12) =     17.20603  eV     1   --> B_1  D_3  S_3  

 **************************************************************************

 **************************************************************************

                    xk=(  -0.23333,   0.00000,   0.23333  )

     Band symmetry, C_2v (mm2)  point group:

     e(  1 -  1) =     -5.34941  eV     1   --> A_1  D_1  S_1  
     e(  2 -  2) =      3.69099  eV     1   --> B_1  D_3  S_3  
     e(  3 -  3) =      4.67500  eV     1   --> A_1  D_1  S_1  
     e(  4 -  4) =      5.92163  eV     1   --> A_2  D_2  S_2  
     e(  5 -  5) =      9.15599  eV     1   --> B_1  D_3  S_3  
     e(  6 -  6) =      9.18500  eV     1   --> B_2  D_4  S_4  
     e(  7 -  7) =      9.38992  eV     1   --> A_1  D_1  S_1  
     e(  8 -  8) =     11.57634  eV     1   --> B_1  D_3  S_3  
     e(  9 -  9) =     12.53448  eV     1   --> A_2  D_2  S_2  
     e( 10 - 10) =     13.98700  eV     1   --> B_1  D_3  S_3  
     e( 11 - 11) =     15.54978  eV     1   --> A_1  D_1  S_1  
     e( 12 - 12) =     17.16631  eV     1   --> B_1  D_3  S_3  

 **************************************************************************

 **************************************************************************

                    xk=(  -0.21667,   0.00000,   0.21667  )

     Band symmetry, C_2v (mm2)  point group:

     e(  1 -  1) =     -5.41402  eV     1   --> A_1  D_1  S_1  
     e(  2 -  2) =      3.90931  eV     1   --> B_1  D_3  S_3  
     e(  3 -  3) =      4.83355  eV     1   --> A_1  D_1  S_1  
     e(  4 -  4) =      5.96039  eV     1   --> A_2  D_2  S_2  
     e(  5 -  5) =      9.11776  eV     1   --> B_2  D_4  S_4  
     e(  6 -  6) =      9.13664  eV     1   --> B_1  D_3  S_3  
     e(  7 -  7) =      9.30930  eV     1   --> A_1  D_1  S_1  
     e(  8 -  8) =     11.46418  eV     1   --> B_1  D_3  S_3  
     e(  9 -  9) =     12.62506  eV     1   --> A_2  D_2  S_2  
     e( 10 - 10) =     13.85814  eV     1   --> B_1  D_3  S_3  
     e( 11 - 11) =     15.37281  eV     1   --> A_1  D_1  S_1  
     e( 12 - 12) =     17.13573  eV     1   --> B_1  D_3  S_3  

 **************************************************************************

 **************************************************************************

                    xk=(  -0.20000,   0.00000,   0.20000  )

     Band symmetry, C_2v (mm2)  point group:

     e(  1 -  1) =     -5.47403  eV     1   --> A_1  D_1  S_1  
     e(  2 -  2) =      4.12931  eV     1   --> B_1  D_3  S_3  
     e(  3 -  3) =      4.98984  eV     1   --> A_1  D_1  S_1  
     e(  4 -  4) =      5.99525  eV     1   --> A_2  D_2  S_2  
     e(  5 -  5) =      9.05547  eV     1   --> B_2  D_4  S_4  
     e(  6 -  6) =      9.11448  eV     1   --> B_1  D_3  S_3  
     e(  7 -  7) =      9.23251  eV     1   --> A_1  D_1  S_1  
     e(  8 -  8) =     11.31850  eV     1   --> B_1  D_3  S_3  
     e(  9 -  9) =     12.72458  eV     1   --> A_2  D_2  S_2  
     e( 10 - 10) =     13.77178  eV     1   --> B_1  D_3  S_3  
     e( 11 - 11) =     15.19548  eV     1   --> A_1  D_1  S_1  
     e( 12 - 12) =     17.11437  eV     1   --> B_1  D_3  S_3  

 **************************************************************************

 **************************************************************************

                    xk=(  -0.18333,   0.00000,   0.18333  )

     Band symmetry, C_2v (mm2)  point group:

     e(  1 -  1) =     -5.52941  eV     1   --> A_1  D_1  S_1  
     e(  2 -  2) =      4.35030  eV     1   --> B_1  D_3  S_3  
     e(  3 -  3) =      5.14285  eV     1   --> A_1  D_1  S_1  
     e(  4 -  4) =      6.02634  eV     1   --> A_2  D_2  S_2  
     e(  5 -  5) =      8.99813  eV     1   --> B_2  D_4  S_4  
     e(  6 -  6) =      9.09006  eV     1   --> B_1  D_3  S_3  
     e(  7 -  7) =      9.15954  eV     1   --> A_1  D_1  S_1  
     e(  8 -  8) =     11.14371  eV     1   --> B_1  D_3  S_3  
     e(  9 -  9) =     12.83206  eV     1   --> A_2  D_2  S_2  
     e( 10 - 10) =     13.72265  eV     1   --> B_1  D_3  S_3  
     e( 11 - 11) =     15.02023  eV     1   --> A_1  D_1  S_1  
     e( 12 - 12) =     17.10220  eV     1   --> B_1  D_3  S_3  

 **************************************************************************

 **************************************************************************

                    xk=(  -0.16667,   0.00000,   0.16667  )

     Band symmetry, C_2v (mm2)  point group:

     e(  1 -  1) =     -5.58010  eV     1   --> A_1  D_1  S_1  
     e(  2 -  2) =      4.57138  eV     1   --> B_1  D_3  S_3  
     e(  3 -  3) =      5.29141  eV     1   --> A_1  D_1  S_1  
     e(  4 -  4) =      6.05385  eV     1   --> A_2  D_2  S_2  
     e(  5 -  5) =      8.94576  eV     1   --> B_2  D_4  S_4  
     e(  6 -  6) =      9.06372  eV     1   --> B_1  D_3  S_3  
     e(  7 -  7) =      9.09043  eV     1   --> A_1  D_1  S_1  
     e(  8 -  8) =     10.94707  eV     1   --> B_1  D_3  S_3  
     e(  9 -  9) =     12.94624  eV     1   --> A_2  D_2  S_2  
     e( 10 - 10) =     13.70306  eV     1   --> B_1  D_3  S_3  
     e( 11 - 11) =     14.84955  eV     1   --> A_1  D_1  S_1  
     e( 12 - 12) =     17.09902  eV     1   --> B_1  D_3  S_3  

 **************************************************************************

 **************************************************************************

                    xk=(  -0.15000,   0.00000,   0.15000  )

     Band symmetry, C_2v (mm2)  point group:

     e(  1 -  1) =     -5.62607  eV     1   --> A_1  D_1  S_1  
     e(  2 -  2) =      4.79137  eV     1   --> B_1  D_3  S_3  
     e(  3 -  3) =      5.43420  eV     1   --> A_1  D_1  S_1  
     e(  4 -  4) =      6.07794  eV     1   --> A_2  D_2  S_2  
     e(  5 -  5) =      8.89836  eV     1   --> B_2  D_4  S_4  
     e(  6 -  6) =      9.02530  eV     1   --> A_1  D_1  S_1  
     e(  7 -  7) =      9.03555  eV     1   --> B_1  D_3  S_3  
     e(  8 -  8) =     10.73686  eV     1   --> B_1  D_3  S_3  
     e(  9 -  9) =     13.06562  eV     1   --> A_2  D_2  S_2  
     e( 10 - 10) =     13.70484  eV     1   --> B_1  D_3  S_3  
     e( 11 - 11) =     14.68586  eV     1   --> A_1  D_1  S_1  
     e( 12 - 12) =     17.10434  eV     1   --> B_1  D_3  S_3  

 **************************************************************************

 **************************************************************************

                    xk=(  -0.13333,   0.00000,   0.13333  )

     Band symmetry, C_2v (mm2)  point group:

     e(  1 -  1) =     -5.66729  eV     1   --> A_1  D_1  S_1  
     e(  2 -  2) =      5.00871  eV     1   --> B_1  D_3  S_3  
     e(  3 -  3) =      5.56974  eV     1   --> A_1  D_1  S_1  
     e(  4 -  4) =      6.09881  eV     1   --> A_2  D_2  S_2  
     e(  5 -  5) =      8.85593  eV     1   --> B_2  D_4  S_4  
     e(  6 -  6) =      8.96436  eV     1   --> A_1  D_1  S_1  
     e(  7 -  7) =      9.00529  eV     1   --> B_1  D_3  S_3  
     e(  8 -  8) =     10.52125  eV     1   --> B_1  D_3  S_3  
     e(  9 -  9) =     13.18828  eV     1   --> A_2  D_2  S_2  
     e( 10 - 10) =     13.72072  eV     1   --> B_1  D_3  S_3  
     e( 11 - 11) =     14.53158  eV     1   --> A_1  D_1  S_1  
     e( 12 - 12) =     17.11736  eV     1   --> B_1  D_3  S_3  

 **************************************************************************

 **************************************************************************

                    xk=(  -0.11667,   0.00000,   0.11667  )

     Band symmetry, C_2v (mm2)  point group:

     e(  1 -  1) =     -5.70372  eV     1   --> A_1  D_1  S_1  
     e(  2 -  2) =      5.22128  eV     1   --> B_1  D_3  S_3  
     e(  3 -  3) =      5.69636  eV     1   --> A_1  D_1  S_1  
     e(  4 -  4) =      6.11666  eV     1   --> A_2  D_2  S_2  
     e(  5 -  5) =      8.81848  eV     1   --> B_2  D_4  S_4  
     e(  6 -  6) =      8.90794  eV     1   --> A_1  D_1  S_1  
     e(  7 -  7) =      8.97228  eV     1   --> B_1  D_3  S_3  
     e(  8 -  8) =     10.30810  eV     1   --> B_1  D_3  S_3  
     e(  9 -  9) =     13.31187  eV     1   --> A_2  D_2  S_2  
     e( 10 - 10) =     13.74478  eV     1   --> B_1  D_3  S_3  
     e( 11 - 11) =     14.38898  eV     1   --> A_1  D_1  S_1  
     e( 12 - 12) =     17.13688  eV     1   --> B_1  D_3  S_3  

 **************************************************************************

 **************************************************************************

                    xk=(  -0.10000,   0.00000,   0.10000  )

     Band symmetry, C_2v (mm2)  point group:

     e(  1 -  1) =     -5.73534  eV     1   --> A_1  D_1  S_1  
     e(  2 -  2) =      5.42620  eV     1   --> B_1  D_3  S_3  
     e(  3 -  3) =      5.81222  eV     1   --> A_1  D_1  S_1  
     e(  4 -  4) =      6.13169  eV     1   --> A_2  D_2  S_2  
     e(  5 -  5) =      8.78602  eV     1   --> B_2  D_4  S_4  
     e(  6 -  6) =      8.85651  eV     1   --> A_1  D_1  S_1  
     e(  7 -  7) =      8.93547  eV     1   --> B_1  D_3  S_3  
     e(  8 -  8) =     10.10521  eV     1   --> B_1  D_3  S_3  
     e(  9 -  9) =     13.43345  eV     1   --> A_2  D_2  S_2  
     e( 10 - 10) =     13.77244  eV     1   --> B_1  D_3  S_3  
     e( 11 - 11) =     14.26027  eV     1   --> A_1  D_1  S_1  
     e( 12 - 12) =     17.16129  eV     1   --> B_1  D_3  S_3  

 **************************************************************************

 **************************************************************************

                    xk=(  -0.08333,   0.00000,   0.08333  )

     Band symmetry, C_2v (mm2)  point group:

     e(  1 -  1) =     -5.76213  eV     1   --> A_1  D_1  S_1  
     e(  2 -  2) =      5.61952  eV     1   --> B_1  D_3  S_3  
     e(  3 -  3) =      5.91536  eV     1   --> A_1  D_1  S_1  
     e(  4 -  4) =      6.14407  eV     1   --> A_2  D_2  S_2  
     e(  5 -  5) =      8.75855  eV     1   --> B_2  D_4  S_4  
     e(  6 -  6) =      8.81073  eV     1   --> A_1  D_1  S_1  
     e(  7 -  7) =      8.89363  eV     1   --> B_1  D_3  S_3  
     e(  8 -  8) =      9.92062  eV     1   --> B_1  D_3  S_3  
     e(  9 -  9) =     13.54939  eV     1   --> A_2  D_2  S_2  
     e( 10 - 10) =     13.80028  eV     1   --> B_1  D_3  S_3  
     e( 11 - 11) =     14.14745  eV     1   --> A_1  D_1  S_1  
     e( 12 - 12) =     17.18852  eV     1   --> B_1  D_3  S_3  

 **************************************************************************

 **************************************************************************

                    xk=(  -0.06667,   0.00000,   0.06667  )

     Band symmetry, C_2v (mm2)  point group:

     e(  1 -  1) =     -5.78408  eV     1   --> A_1  D_1  S_1  
     e(  2 -  2) =      5.79587  eV     1   --> B_1  D_3  S_3  
     e(  3 -  3) =      6.00369  eV     1   --> A_1  D_1  S_1  
     e(  4 -  4) =      6.15396  eV     1   --> A_2  D_2  S_2  
     e(  5 -  5) =      8.73606  eV     1   --> B_2  D_4  S_4  
     e(  6 -  6) =      8.77138  eV     1   --> A_1  D_1  S_1  
     e(  7 -  7) =      8.84615  eV     1   --> B_1  D_3  S_3  
     e(  8 -  8) =      9.76238  eV     1   --> B_1  D_3  S_3  
     e(  9 -  9) =     13.65531  eV     1   --> A_2  D_2  S_2  
     e( 10 - 10) =     13.82578  eV     1   --> B_1  D_3  S_3  
     e( 11 - 11) =     14.05237  eV     1   --> A_1  D_1  S_1  
     e( 12 - 12) =     17.21614  eV     1   --> B_1  D_3  S_3  

 **************************************************************************

 **************************************************************************

                    xk=(  -0.05000,   0.00000,   0.05000  )

     Band symmetry, C_2v (mm2)  point group:

     e(  1 -  1) =     -5.80116  eV     1   --> A_1  D_1  S_1  
     e(  2 -  2) =      5.94810  eV     1   --> B_1  D_3  S_3  
     e(  3 -  3) =      6.07514  eV     1   --> A_1  D_1  S_1  
     e(  4 -  4) =      6.16150  eV     1   --> A_2  D_2  S_2  
     e(  5 -  5) =      8.71857  eV     1   --> B_2  D_4  S_4  
     e(  6 -  6) =      8.73938  eV     1   --> A_1  D_1  S_1  
     e(  7 -  7) =      8.79484  eV     1   --> B_1  D_3  S_3  
     e(  8 -  8) =      9.63730  eV     1   --> B_1  D_3  S_3  
     e(  9 -  9) =     13.74614  eV     1   --> A_2  D_2  S_2  
     e( 10 - 10) =     13.84717  eV     1   --> B_1  D_3  S_3  
     e( 11 - 11) =     13.97663  eV     1   --> A_1  D_1  S_1  
     e( 12 - 12) =     17.24149  eV     1   --> B_1  D_3  S_3  

 **************************************************************************

 **************************************************************************

                    xk=(  -0.03333,   0.00000,   0.03333  )

     Band symmetry, C_2v (mm2)  point group:

     e(  1 -  1) =     -5.81337  eV     1   --> A_1  D_1  S_1  
     e(  2 -  2) =      6.06743  eV     1   --> B_1  D_3  S_3  
     e(  3 -  3) =      6.12781  eV     1   --> A_1  D_1  S_1  
     e(  4 -  4) =      6.16680  eV     1   --> A_2  D_2  S_2  
     e(  5 -  5) =      8.70608  eV     1   --> B_2  D_4  S_4  
     e(  6 -  6) =      8.71565  eV     1   --> A_1  D_1  S_1  
     e(  7 -  7) =      8.74589  eV     1   --> B_1  D_3  S_3  
     e(  8 -  8) =      9.54901  eV     1   --> B_1  D_3  S_3  
     e(  9 -  9) =     13.81645  eV     1   --> A_2  D_2  S_2  
     e( 10 - 10) =     13.86323  eV     1   --> B_1  D_3  S_3  
     e( 11 - 11) =     13.92155  eV     1   --> A_1  D_1  S_1  
     e( 12 - 12) =     17.26194  eV     1   --> B_1  D_3  S_3  

 **************************************************************************

 **************************************************************************

                    xk=(  -0.01667,   0.00000,   0.01667  )

     Band symmetry, C_2v (mm2)  point group:

     e(  1 -  1) =     -5.82070  eV     1   --> A_1  D_1  S_1  
     e(  2 -  2) =      6.14433  eV     1   --> B_1  D_3  S_3  
     e(  3 -  3) =      6.16011  eV     1   --> A_1  D_1  S_1  
     e(  4 -  4) =      6.16995  eV     1   --> A_2  D_2  S_2  
     e(  5 -  5) =      8.69859  eV     1   --> B_2  D_4  S_4  
     e(  6 -  6) =      8.70103  eV     1   --> A_1  D_1  S_1  
     e(  7 -  7) =      8.70960  eV     1   --> B_1  D_3  S_3  
     e(  8 -  8) =      9.49740  eV     1   --> B_1  D_3  S_3  
     e(  9 -  9) =     13.86115  eV     1   --> A_2  D_2  S_2  
     e( 10 - 10) =     13.87315  eV     1   --> B_1  D_3  S_3  
     e( 11 - 11) =     13.88809  eV     1   --> A_1  D_1  S_1  
     e( 12 - 12) =     17.27526  eV     1   --> B_1  D_3  S_3  

 **************************************************************************

 **************************************************************************

                    xk=(   0.00000,   0.00000,   0.00000  )

     point group O_h (m-3m) 
     there are 10 classes
     the character table:

       E     8C3   3C2   6C4   6C2'  i     8S6   3s_h  6S4   6s_d 
A_1g   1.00  1.00  1.00  1.00  1.00  1.00  1.00  1.00  1.00  1.00
A_2g   1.00  1.00  1.00 -1.00 -1.00  1.00  1.00  1.00 -1.00 -1.00
E_g    2.00 -1.00  2.00  0.00  0.00  2.00 -1.00  2.00  0.00  0.00
T_1g   3.00  0.00 -1.00  1.00 -1.00  3.00  0.00 -1.00  1.00 -1.00
T_2g   3.00  0.00 -1.00 -1.00  1.00  3.00  0.00 -1.00 -1.00  1.00
A_1u   1.00  1.00  1.00  1.00  1.00 -1.00 -1.00 -1.00 -1.00 -1.00
A_2u   1.00  1.00  1.00 -1.00 -1.00 -1.00 -1.00 -1.00  1.00  1.00
E_u    2.00 -1.00  2.00  0.00  0.00 -2.00  1.00 -2.00  0.00  0.00
T_1u   3.00  0.00 -1.00  1.00 -1.00 -3.00  0.00  1.00 -1.00  1.00
T_2u   3.00  0.00 -1.00 -1.00  1.00 -3.00  0.00  1.00  1.00 -1.00

     the symmetry operations in each class and the name of the first element:

     E        1
                                                                 
     8C3     17   19   20   18   24   21   22   23
                                                                 
     3C2      2    4    3
                                                                 
     6C4      7    8   15   16   12   11
                                                                 
     6C2'     5    6   14   13   10    9
                                                                 
     i       25
                                                                 
     8S6     41   43   44   42   48   45   46   47
                                                                 
     3s_h    26   28   27
                                                                 
     6S4     31   32   39   40   36   35
                                                                 
     6s_d    29   30   38   37   34   33
                                                                 

     Band symmetry, O_h (m-3m)  point group:

     e(  1 -  1) =     -5.82314  eV     1   --> A_1g G_1   G_1+
     e(  2 -  4) =      6.17100  eV     3   --> T_2g G_25' G_5+
     e(  5 -  7) =      8.69609  eV     3   --> T_1u G_15  G_4-
     e(  8 -  8) =      9.48054  eV     1   --> A_2u G_2'  G_2-
     e(  9 - 10) =     13.87650  eV     2   --> E_u  G_12' G_3-
     e( 11 - 11) =     13.87687  eV     1   --> A_1g G_1   G_1+
     e( 12 - 12) =     17.27988  eV     1   -->   ?

 **************************************************************************

     BANDS        :      4.93s CPU      5.01s WALL


   This run was terminated on:  14:36: 6  22Dec2024            

=------------------------------------------------------------------------------=
   JOB DONE.
=------------------------------------------------------------------------------=
