
     Program BANDS v.7.3.1 starts on 25Dec2024 at 23:11:59 

     This program is part of the open-source Quantum ESPRESSO suite
     for quantum simulation of materials; please cite
         "P. Giannozzi et al., J. Phys.:Condens. Matter 21 395502 (2009);
         "P. Giannozzi et al., J. Phys.:Condens. Matter 29 465901 (2017);
         "P. Giannozzi et al., J. Chem. Phys. 152 154105 (2020);
          URL http://www.quantum-espresso.org", 
     in publications or presentations arising from this work. More details at
     http://www.quantum-espresso.org/quote

     Serial version
     107255 MiB available memory on the printing compute node when the environment starts


     Reading xml data from directory:

     ./silicon.save/

     IMPORTANT: XC functional enforced from input :
     Exchange-correlation= PBESOL
                           (   1   4  10   8   0   0   0)
     Any further DFT definition will be discarded
     Please, verify this is what you really want


     G-vector sticks info
     --------------------
     sticks:   dense  smooth     PW     G-vecs:    dense   smooth      PW
     Sum         583     583    169                 9257     9257    1471

     Using Slab Decomposition


     Check: negative core charge=   -0.000003
     Reading collected, re-writing distributed wavefunctions
     high-symmetry point: -0.5000 0.5000 0.5000   x coordinate   0.0000
     high-symmetry point:  0.0000 0.0000 0.0000   x coordinate   0.8660
     high-symmetry point: -1.0000 0.0000 0.0000   x coordinate   1.8660
     high-symmetry point: -1.0000 0.2500 0.2500   x coordinate   2.2196
     high-symmetry point: -0.7500 0.0000 0.7500   x coordinate   2.2196
     high-symmetry point:  0.0000 0.0000 0.0000   x coordinate   3.2802

     Plottable bands (eV) written to file Si_bands.dat.gnu
     Bands written to file Si_bands.dat

 **************************************************************************

                    xk=(  -0.50000,   0.50000,   0.50000  )

     zone border point and non-symmorphic group 
     symmetry decomposition not available

 **************************************************************************

 **************************************************************************

                    xk=(  -0.49296,   0.49296,   0.49296  )

     point group C_3v (3m)  
     there are  3 classes
     the character table:

       E     2C3   3s_v 
A_1    1.00  1.00  1.00
A_2    1.00  1.00 -1.00
E      2.00 -1.00  0.00

     the symmetry operations in each class and the name of the first element:

     E        1
                                                                 
     2C3      2    3
                                                                 
     3s_v     4    5    6
                                                                 

     Band symmetry, C_3v (3m)   point group:

     e(  1 -  1) =     -3.47431  eV     1   --> A_1  L_1       
     e(  2 -  2) =     -0.84233  eV     1   --> A_1  L_1       
     e(  3 -  4) =      4.96726  eV     2   --> E    L_3       
     e(  5 -  5) =      7.63751  eV     1   --> A_1  L_1       
     e(  6 -  7) =      9.45450  eV     2   --> E    L_3       
     e(  8 -  8) =     13.69329  eV     1   --> A_1  L_1       
     e(  9 - 10) =     16.67025  eV     2   --> E    L_3       
     e( 11 - 11) =     17.37032  eV     1   --> A_1  L_1       
     e( 12 - 12) =     17.48361  eV     1   -->   ?

 **************************************************************************

 **************************************************************************

                    xk=(  -0.48592,   0.48592,   0.48592  )

     Band symmetry, C_3v (3m)   point group:

     e(  1 -  1) =     -3.48303  eV     1   --> A_1  L_1       
     e(  2 -  2) =     -0.82992  eV     1   --> A_1  L_1       
     e(  3 -  4) =      4.96833  eV     2   --> E    L_3       
     e(  5 -  5) =      7.63874  eV     1   --> A_1  L_1       
     e(  6 -  7) =      9.45579  eV     2   --> E    L_3       
     e(  8 -  8) =     13.69531  eV     1   --> A_1  L_1       
     e(  9 - 10) =     16.59828  eV     2   --> E    L_3       
     e( 11 - 11) =     17.33813  eV     1   --> A_1  L_1       
     e( 12 - 12) =     17.56006  eV     1   -->   ?

 **************************************************************************

 **************************************************************************

                    xk=(  -0.47887,   0.47887,   0.47887  )

     Band symmetry, C_3v (3m)   point group:

     e(  1 -  1) =     -3.49738  eV     1   --> A_1  L_1       
     e(  2 -  2) =     -0.80942  eV     1   --> A_1  L_1       
     e(  3 -  4) =      4.97010  eV     2   --> E    L_3       
     e(  5 -  5) =      7.64080  eV     1   --> A_1  L_1       
     e(  6 -  7) =      9.45793  eV     2   --> E    L_3       
     e(  8 -  8) =     13.69868  eV     1   --> A_1  L_1       
     e(  9 - 10) =     16.49902  eV     2   --> E    L_3       
     e( 11 - 11) =     17.28695  eV     1   --> A_1  L_1       
     e( 12 - 12) =     17.66678  eV     1   -->   ?

 **************************************************************************

 **************************************************************************

                    xk=(  -0.47183,   0.47183,   0.47183  )

     Band symmetry, C_3v (3m)   point group:

     e(  1 -  1) =     -3.51708  eV     1   --> A_1  L_1       
     e(  2 -  2) =     -0.78111  eV     1   --> A_1  L_1       
     e(  3 -  4) =      4.97259  eV     2   --> E    L_3       
     e(  5 -  5) =      7.64367  eV     1   --> A_1  L_1       
     e(  6 -  7) =      9.46092  eV     2   --> E    L_3       
     e(  8 -  8) =     13.70337  eV     1   --> A_1  L_1       
     e(  9 - 10) =     16.38514  eV     2   --> E    L_3       
     e( 11 - 11) =     17.21974  eV     1   --> A_1  L_1       
     e( 12 - 12) =     17.79111  eV     1   -->   ?

 **************************************************************************

 **************************************************************************

                    xk=(  -0.46479,   0.46479,   0.46479  )

     Band symmetry, C_3v (3m)   point group:

     e(  1 -  1) =     -3.54180  eV     1   --> A_1  L_1       
     e(  2 -  2) =     -0.74531  eV     1   --> A_1  L_1       
     e(  3 -  4) =      4.97578  eV     2   --> E    L_3       
     e(  5 -  5) =      7.64737  eV     1   --> A_1  L_1       
     e(  6 -  7) =      9.46473  eV     2   --> E    L_3       
     e(  8 -  8) =     13.70935  eV     1   --> A_1  L_1       
     e(  9 - 10) =     16.26366  eV     2   --> E    L_3       
     e( 11 - 11) =     17.13956  eV     1   --> A_1  L_1       
     e( 12 - 12) =     17.92598  eV     1   -->   ?

 **************************************************************************

 **************************************************************************

                    xk=(  -0.45775,   0.45775,   0.45775  )

     Band symmetry, C_3v (3m)   point group:

     e(  1 -  1) =     -3.57113  eV     1   --> A_1  L_1       
     e(  2 -  2) =     -0.70245  eV     1   --> A_1  L_1       
     e(  3 -  4) =      4.97969  eV     2   --> E    L_3       
     e(  5 -  5) =      7.65189  eV     1   --> A_1  L_1       
     e(  6 -  7) =      9.46934  eV     2   --> E    L_3       
     e(  8 -  8) =     13.71660  eV     1   --> A_1  L_1       
     e(  9 - 10) =     16.13838  eV     2   --> E    L_3       
     e( 11 - 11) =     17.04917  eV     1   --> A_1  L_1       
     e( 12 - 12) =     18.06762  eV     1   -->   ?

 **************************************************************************

 **************************************************************************

                    xk=(  -0.45070,   0.45070,   0.45070  )

     Band symmetry, C_3v (3m)   point group:

     e(  1 -  1) =     -3.60464  eV     1   --> A_1  L_1       
     e(  2 -  2) =     -0.65296  eV     1   --> A_1  L_1       
     e(  3 -  4) =      4.98430  eV     2   --> E    L_3       
     e(  5 -  5) =      7.65723  eV     1   --> A_1  L_1       
     e(  6 -  7) =      9.47473  eV     2   --> E    L_3       
     e(  8 -  8) =     13.72507  eV     1   --> A_1  L_1       
     e(  9 - 10) =     16.01138  eV     2   --> E    L_3       
     e( 11 - 11) =     16.95092  eV     1   --> A_1  L_1       
     e( 12 - 12) =     18.21390  eV     1   -->   ?

 **************************************************************************

 **************************************************************************

                    xk=(  -0.44366,   0.44366,   0.44366  )

     Band symmetry, C_3v (3m)   point group:

     e(  1 -  1) =     -3.64187  eV     1   --> A_1  L_1       
     e(  2 -  2) =     -0.59729  eV     1   --> A_1  L_1       
     e(  3 -  4) =      4.98963  eV     2   --> E    L_3       
     e(  5 -  5) =      7.66338  eV     1   --> A_1  L_1       
     e(  6 -  7) =      9.48087  eV     2   --> E    L_3       
     e(  8 -  8) =     13.73470  eV     1   --> A_1  L_1       
     e(  9 - 10) =     15.88391  eV     2   --> E    L_3       
     e( 11 - 11) =     16.84669  eV     1   --> A_1  L_1       
     e( 12 - 12) =     18.36355  eV     1   -->   ?

 **************************************************************************

 **************************************************************************

                    xk=(  -0.43662,   0.43662,   0.43662  )

     Band symmetry, C_3v (3m)   point group:

     e(  1 -  1) =     -3.68238  eV     1   --> A_1  L_1       
     e(  2 -  2) =     -0.53590  eV     1   --> A_1  L_1       
     e(  3 -  4) =      4.99566  eV     2   --> E    L_3       
     e(  5 -  5) =      7.67035  eV     1   --> A_1  L_1       
     e(  6 -  7) =      9.48773  eV     2   --> E    L_3       
     e(  8 -  8) =     13.74543  eV     1   --> A_1  L_1       
     e(  9 - 10) =     15.75676  eV     2   --> E    L_3       
     e( 11 - 11) =     16.73793  eV     1   --> A_1  L_1       
     e( 12 - 12) =     18.51574  eV     1   -->   ?

 **************************************************************************

 **************************************************************************

                    xk=(  -0.42958,   0.42958,   0.42958  )

     Band symmetry, C_3v (3m)   point group:

     e(  1 -  1) =     -3.72574  eV     1   --> A_1  L_1       
     e(  2 -  2) =     -0.46922  eV     1   --> A_1  L_1       
     e(  3 -  4) =      5.00240  eV     2   --> E    L_3       
     e(  5 -  5) =      7.67814  eV     1   --> A_1  L_1       
     e(  6 -  7) =      9.49525  eV     2   --> E    L_3       
     e(  8 -  8) =     13.75717  eV     1   --> A_1  L_1       
     e(  9 - 10) =     15.63045  eV     2   --> E    L_3       
     e( 11 - 11) =     16.62585  eV     1   --> A_1  L_1       
     e( 12 - 12) =     18.66992  eV     1   -->   ?

 **************************************************************************

 **************************************************************************

                    xk=(  -0.42254,   0.42254,   0.42254  )

     Band symmetry, C_3v (3m)   point group:

     e(  1 -  1) =     -3.77153  eV     1   --> A_1  L_1       
     e(  2 -  2) =     -0.39766  eV     1   --> A_1  L_1       
     e(  3 -  4) =      5.00984  eV     2   --> E    L_3       
     e(  5 -  5) =      7.68673  eV     1   --> A_1  L_1       
     e(  6 -  7) =      9.50340  eV     2   --> E    L_3       
     e(  8 -  8) =     13.76982  eV     1   --> A_1  L_1       
     e(  9 - 10) =     15.50536  eV     2   --> E    L_3       
     e( 11 - 11) =     16.51139  eV     1   --> A_1  L_1       
     e( 12 - 12) =     18.82562  eV     1   -->   ?

 **************************************************************************

 **************************************************************************

                    xk=(  -0.41549,   0.41549,   0.41549  )

     Band symmetry, C_3v (3m)   point group:

     e(  1 -  1) =     -3.81938  eV     1   --> A_1  L_1       
     e(  2 -  2) =     -0.32162  eV     1   --> A_1  L_1       
     e(  3 -  4) =      5.01800  eV     2   --> E    L_3       
     e(  5 -  5) =      7.69613  eV     1   --> A_1  L_1       
     e(  6 -  7) =      9.51211  eV     2   --> E    L_3       
     e(  8 -  8) =     13.78325  eV     1   --> A_1  L_1       
     e(  9 - 10) =     15.38177  eV     2   --> E    L_3       
     e( 11 - 11) =     16.39531  eV     1   --> A_1  L_1       
     e( 12 - 12) =     18.98250  eV     1   -->   ?

 **************************************************************************

 **************************************************************************

                    xk=(  -0.40845,   0.40845,   0.40845  )

     Band symmetry, C_3v (3m)   point group:

     e(  1 -  1) =     -3.86893  eV     1   --> A_1  L_1       
     e(  2 -  2) =     -0.24144  eV     1   --> A_1  L_1       
     e(  3 -  4) =      5.02686  eV     2   --> E    L_3       
     e(  5 -  5) =      7.70634  eV     1   --> A_1  L_1       
     e(  6 -  7) =      9.52133  eV     2   --> E    L_3       
     e(  8 -  8) =     13.79731  eV     1   --> A_1  L_1       
     e(  9 - 10) =     15.25991  eV     2   --> E    L_3       
     e( 11 - 11) =     16.27827  eV     1   --> A_1  L_1       
     e( 12 - 12) =     19.14022  eV     1   -->   ?

 **************************************************************************

 **************************************************************************

                    xk=(  -0.40141,   0.40141,   0.40141  )

     Band symmetry, C_3v (3m)   point group:

     e(  1 -  1) =     -3.91987  eV     1   --> A_1  L_1       
     e(  2 -  2) =     -0.15745  eV     1   --> A_1  L_1       
     e(  3 -  4) =      5.03642  eV     2   --> E    L_3       
     e(  5 -  5) =      7.71734  eV     1   --> A_1  L_1       
     e(  6 -  7) =      9.53100  eV     2   --> E    L_3       
     e(  8 -  8) =     13.81180  eV     1   --> A_1  L_1       
     e(  9 - 10) =     15.13997  eV     2   --> E    L_3       
     e( 11 - 11) =     16.16085  eV     1   --> A_1  L_1       
     e( 12 - 12) =     19.29845  eV     1   -->   ?

 **************************************************************************

 **************************************************************************

                    xk=(  -0.39437,   0.39437,   0.39437  )

     Band symmetry, C_3v (3m)   point group:

     e(  1 -  1) =     -3.97191  eV     1   --> A_1  L_1       
     e(  2 -  2) =     -0.06994  eV     1   --> A_1  L_1       
     e(  3 -  4) =      5.04669  eV     2   --> E    L_3       
     e(  5 -  5) =      7.72915  eV     1   --> A_1  L_1       
     e(  6 -  7) =      9.54104  eV     2   --> E    L_3       
     e(  8 -  8) =     13.82649  eV     1   --> A_1  L_1       
     e(  9 - 10) =     15.02212  eV     2   --> E    L_3       
     e( 11 - 11) =     16.04360  eV     1   --> A_1  L_1       
     e( 12 - 12) =     19.45687  eV     1   -->   ?

 **************************************************************************

 **************************************************************************

                    xk=(  -0.38732,   0.38732,   0.38732  )

     Band symmetry, C_3v (3m)   point group:

     e(  1 -  1) =     -4.02481  eV     1   --> A_1  L_1       
     e(  2 -  2) =      0.02083  eV     1   --> A_1  L_1       
     e(  3 -  4) =      5.05766  eV     2   --> E    L_3       
     e(  5 -  5) =      7.74174  eV     1   --> A_1  L_1       
     e(  6 -  7) =      9.55137  eV     2   --> E    L_3       
     e(  8 -  8) =     13.84106  eV     1   --> A_1  L_1       
     e(  9 - 10) =     14.90652  eV     2   --> E    L_3       
     e( 11 - 11) =     15.92705  eV     1   --> A_1  L_1       
     e( 12 - 12) =     19.61507  eV     1   -->   ?

 **************************************************************************

 **************************************************************************

                    xk=(  -0.38028,   0.38028,   0.38028  )

     Band symmetry, C_3v (3m)   point group:

     e(  1 -  1) =     -4.07833  eV     1   --> A_1  L_1       
     e(  2 -  2) =      0.11462  eV     1   --> A_1  L_1       
     e(  3 -  4) =      5.06933  eV     2   --> E    L_3       
     e(  5 -  5) =      7.75513  eV     1   --> A_1  L_1       
     e(  6 -  7) =      9.56190  eV     2   --> E    L_3       
     e(  8 -  8) =     13.85514  eV     1   --> A_1  L_1       
     e(  9 - 10) =     14.79332  eV     2   --> E    L_3       
     e( 11 - 11) =     15.81176  eV     1   --> A_1  L_1       
     e( 12 - 12) =     19.77262  eV     1   -->   ?

 **************************************************************************

 **************************************************************************

                    xk=(  -0.37324,   0.37324,   0.37324  )

     Band symmetry, C_3v (3m)   point group:

     e(  1 -  1) =     -4.13228  eV     1   --> A_1  L_1       
     e(  2 -  2) =      0.21123  eV     1   --> A_1  L_1       
     e(  3 -  4) =      5.08169  eV     2   --> E    L_3       
     e(  5 -  5) =      7.76929  eV     1   --> A_1  L_1       
     e(  6 -  7) =      9.57255  eV     2   --> E    L_3       
     e(  8 -  8) =     13.86825  eV     1   --> A_1  L_1       
     e(  9 - 10) =     14.68265  eV     2   --> E    L_3       
     e( 11 - 11) =     15.69836  eV     1   --> A_1  L_1       
     e( 12 - 12) =     19.92898  eV     1   -->   ?

 **************************************************************************

 **************************************************************************

                    xk=(  -0.36620,   0.36620,   0.36620  )

     Band symmetry, C_3v (3m)   point group:

     e(  1 -  1) =     -4.18647  eV     1   --> A_1  L_1       
     e(  2 -  2) =      0.31047  eV     1   --> A_1  L_1       
     e(  3 -  4) =      5.09475  eV     2   --> E    L_3       
     e(  5 -  5) =      7.78423  eV     1   --> A_1  L_1       
     e(  6 -  7) =      9.58319  eV     2   --> E    L_3       
     e(  8 -  8) =     13.87976  eV     1   --> A_1  L_1       
     e(  9 - 10) =     14.57465  eV     2   --> E    L_3       
     e( 11 - 11) =     15.58756  eV     1   --> A_1  L_1       
     e( 12 - 12) =     20.06280  eV     1   --> A_1  L_1       

 **************************************************************************

 **************************************************************************

                    xk=(  -0.35915,   0.35915,   0.35915  )

     Band symmetry, C_3v (3m)   point group:

     e(  1 -  1) =     -4.24074  eV     1   --> A_1  L_1       
     e(  2 -  2) =      0.41216  eV     1   --> A_1  L_1       
     e(  3 -  4) =      5.10850  eV     2   --> E    L_3       
     e(  5 -  5) =      7.79994  eV     1   --> A_1  L_1       
     e(  6 -  7) =      9.59373  eV     2   --> E    L_3       
     e(  8 -  8) =     13.88890  eV     1   --> A_1  L_1       
     e(  9 - 10) =     14.46948  eV     2   --> E    L_3       
     e( 11 - 11) =     15.48023  eV     1   --> A_1  L_1       
     e( 12 - 12) =     20.00150  eV     1   --> A_1  L_1       

 **************************************************************************

 **************************************************************************

                    xk=(  -0.35211,   0.35211,   0.35211  )

     Band symmetry, C_3v (3m)   point group:

     e(  1 -  1) =     -4.29495  eV     1   --> A_1  L_1       
     e(  2 -  2) =      0.51615  eV     1   --> A_1  L_1       
     e(  3 -  4) =      5.12294  eV     2   --> E    L_3       
     e(  5 -  5) =      7.81641  eV     1   --> A_1  L_1       
     e(  6 -  7) =      9.60405  eV     2   --> E    L_3       
     e(  8 -  8) =     13.89466  eV     1   --> A_1  L_1       
     e(  9 - 10) =     14.36727  eV     2   --> E    L_3       
     e( 11 - 11) =     15.37740  eV     1   --> A_1  L_1       
     e( 12 - 12) =     19.91952  eV     1   --> A_1  L_1       

 **************************************************************************

 **************************************************************************

                    xk=(  -0.34507,   0.34507,   0.34507  )

     Band symmetry, C_3v (3m)   point group:

     e(  1 -  1) =     -4.34899  eV     1   --> A_1  L_1       
     e(  2 -  2) =      0.62232  eV     1   --> A_1  L_1       
     e(  3 -  4) =      5.13807  eV     2   --> E    L_3       
     e(  5 -  5) =      7.83364  eV     1   --> A_1  L_1       
     e(  6 -  7) =      9.61401  eV     2   --> E    L_3       
     e(  8 -  8) =     13.89582  eV     1   --> A_1  L_1       
     e(  9 - 10) =     14.26819  eV     2   --> E    L_3       
     e( 11 - 11) =     15.28034  eV     1   --> A_1  L_1       
     e( 12 - 12) =     19.81950  eV     1   --> A_1  L_1       

 **************************************************************************

 **************************************************************************

                    xk=(  -0.33803,   0.33803,   0.33803  )

     Band symmetry, C_3v (3m)   point group:

     e(  1 -  1) =     -4.40273  eV     1   --> A_1  L_1       
     e(  2 -  2) =      0.73052  eV     1   --> A_1  L_1       
     e(  3 -  4) =      5.15387  eV     2   --> E    L_3       
     e(  5 -  5) =      7.85160  eV     1   --> A_1  L_1       
     e(  6 -  7) =      9.62348  eV     2   --> E    L_3       
     e(  8 -  8) =     13.89089  eV     1   --> A_1  L_1       
     e(  9 - 10) =     14.17236  eV     2   --> E    L_3       
     e( 11 - 11) =     15.19053  eV     1   --> A_1  L_1       
     e( 12 - 12) =     19.70442  eV     1   --> A_1  L_1       

 **************************************************************************

 **************************************************************************

                    xk=(  -0.33099,   0.33099,   0.33099  )

     Band symmetry, C_3v (3m)   point group:

     e(  1 -  1) =     -4.45608  eV     1   --> A_1  L_1       
     e(  2 -  2) =      0.84066  eV     1   --> A_1  L_1       
     e(  3 -  4) =      5.17035  eV     2   --> E    L_3       
     e(  5 -  5) =      7.87030  eV     1   --> A_1  L_1       
     e(  6 -  7) =      9.63231  eV     2   --> E    L_3       
     e(  8 -  8) =     13.87818  eV     1   --> A_1  L_1       
     e(  9 - 10) =     14.07996  eV     2   --> E    L_3       
     e( 11 - 11) =     15.10965  eV     1   --> A_1  L_1       
     e( 12 - 12) =     19.57721  eV     1   --> A_1  L_1       

 **************************************************************************

 **************************************************************************

                    xk=(  -0.32394,   0.32394,   0.32394  )

     Band symmetry, C_3v (3m)   point group:

     e(  1 -  1) =     -4.50895  eV     1   --> A_1  L_1       
     e(  2 -  2) =      0.95263  eV     1   --> A_1  L_1       
     e(  3 -  4) =      5.18750  eV     2   --> E    L_3       
     e(  5 -  5) =      7.88972  eV     1   --> A_1  L_1       
     e(  6 -  7) =      9.64036  eV     2   --> E    L_3       
     e(  8 -  8) =     13.85594  eV     1   --> A_1  L_1       
     e(  9 - 10) =     13.99115  eV     2   --> E    L_3       
     e( 11 - 11) =     15.03942  eV     1   --> A_1  L_1       
     e( 12 - 12) =     19.44051  eV     1   --> A_1  L_1       

 **************************************************************************

 **************************************************************************

                    xk=(  -0.31690,   0.31690,   0.31690  )

     Band symmetry, C_3v (3m)   point group:

     e(  1 -  1) =     -4.56126  eV     1   --> A_1  L_1       
     e(  2 -  2) =      1.06633  eV     1   --> A_1  L_1       
     e(  3 -  4) =      5.20530  eV     2   --> E    L_3       
     e(  5 -  5) =      7.90985  eV     1   --> A_1  L_1       
     e(  6 -  7) =      9.64747  eV     2   --> E    L_3       
     e(  8 -  8) =     13.82265  eV     1   --> A_1  L_1       
     e(  9 - 10) =     13.90610  eV     2   --> E    L_3       
     e( 11 - 11) =     14.98132  eV     1   --> A_1  L_1       
     e( 12 - 12) =     19.29662  eV     1   --> A_1  L_1       

 **************************************************************************

 **************************************************************************

                    xk=(  -0.30986,   0.30986,   0.30986  )

     Band symmetry, C_3v (3m)   point group:

     e(  1 -  1) =     -4.61294  eV     1   --> A_1  L_1       
     e(  2 -  2) =      1.18168  eV     1   --> A_1  L_1       
     e(  3 -  4) =      5.22377  eV     2   --> E    L_3       
     e(  5 -  5) =      7.93067  eV     1   --> A_1  L_1       
     e(  6 -  7) =      9.65348  eV     2   --> E    L_3       
     e(  8 -  8) =     13.77728  eV     1   --> A_1  L_1       
     e(  9 - 10) =     13.82496  eV     2   --> E    L_3       
     e( 11 - 11) =     14.93630  eV     1   --> A_1  L_1       
     e( 12 - 12) =     19.14744  eV     1   --> A_1  L_1       

 **************************************************************************

 **************************************************************************

                    xk=(  -0.30282,   0.30282,   0.30282  )

     Band symmetry, C_3v (3m)   point group:

     e(  1 -  1) =     -4.66393  eV     1   --> A_1  L_1       
     e(  2 -  2) =      1.29859  eV     1   --> A_1  L_1       
     e(  3 -  4) =      5.24287  eV     2   --> E    L_3       
     e(  5 -  5) =      7.95217  eV     1   --> A_1  L_1       
     e(  6 -  7) =      9.65822  eV     2   --> E    L_3       
     e(  8 -  8) =     13.71963  eV     1   --> A_1  L_1       
     e(  9 - 10) =     13.74792  eV     2   --> E    L_3       
     e( 11 - 11) =     14.90449  eV     1   --> A_1  L_1       
     e( 12 - 12) =     18.99456  eV     1   --> A_1  L_1       

 **************************************************************************

 **************************************************************************

                    xk=(  -0.29577,   0.29577,   0.29577  )

     Band symmetry, C_3v (3m)   point group:

     e(  1 -  1) =     -4.71417  eV     1   --> A_1  L_1       
     e(  2 -  2) =      1.41699  eV     1   --> A_1  L_1       
     e(  3 -  4) =      5.26262  eV     2   --> E    L_3       
     e(  5 -  5) =      7.97433  eV     1   --> A_1  L_1       
     e(  6 -  7) =      9.66153  eV     2   --> E    L_3       
     e(  8 -  8) =     13.65028  eV     1   --> A_1  L_1       
     e(  9 - 10) =     13.67514  eV     2   --> E    L_3       
     e( 11 - 11) =     14.88519  eV     1   --> A_1  L_1       
     e( 12 - 12) =     18.83930  eV     1   --> A_1  L_1       

 **************************************************************************

 **************************************************************************

                    xk=(  -0.28873,   0.28873,   0.28873  )

     Band symmetry, C_3v (3m)   point group:

     e(  1 -  1) =     -4.76361  eV     1   --> A_1  L_1       
     e(  2 -  2) =      1.53681  eV     1   --> A_1  L_1       
     e(  3 -  4) =      5.28299  eV     2   --> E    L_3       
     e(  5 -  5) =      7.99713  eV     1   --> A_1  L_1       
     e(  6 -  7) =      9.66323  eV     2   --> E    L_3       
     e(  8 -  8) =     13.57046  eV     1   --> A_1  L_1       
     e(  9 - 10) =     13.60679  eV     2   --> E    L_3       
     e( 11 - 11) =     14.87704  eV     1   --> A_1  L_1       
     e( 12 - 12) =     18.68278  eV     1   --> A_1  L_1       

 **************************************************************************

 **************************************************************************

                    xk=(  -0.28169,   0.28169,   0.28169  )

     Band symmetry, C_3v (3m)   point group:

     e(  1 -  1) =     -4.81221  eV     1   --> A_1  L_1       
     e(  2 -  2) =      1.65797  eV     1   --> A_1  L_1       
     e(  3 -  4) =      5.30397  eV     2   --> E    L_3       
     e(  5 -  5) =      8.02056  eV     1   --> A_1  L_1       
     e(  6 -  7) =      9.66318  eV     2   --> E    L_3       
     e(  8 -  8) =     13.48170  eV     1   --> A_1  L_1       
     e(  9 - 10) =     13.54302  eV     2   --> E    L_3       
     e( 11 - 11) =     14.87835  eV     1   --> A_1  L_1       
     e( 12 - 12) =     18.52594  eV     1   --> A_1  L_1       

 **************************************************************************

 **************************************************************************

                    xk=(  -0.27465,   0.27465,   0.27465  )

     Band symmetry, C_3v (3m)   point group:

     e(  1 -  1) =     -4.85992  eV     1   --> A_1  L_1       
     e(  2 -  2) =      1.78042  eV     1   --> A_1  L_1       
     e(  3 -  4) =      5.32556  eV     2   --> E    L_3       
     e(  5 -  5) =      8.04459  eV     1   --> A_1  L_1       
     e(  6 -  7) =      9.66121  eV     2   --> E    L_3       
     e(  8 -  8) =     13.38556  eV     1   --> A_1  L_1       
     e(  9 - 10) =     13.48400  eV     2   --> E    L_3       
     e( 11 - 11) =     14.88737  eV     1   --> A_1  L_1       
     e( 12 - 12) =     18.36961  eV     1   --> A_1  L_1       

 **************************************************************************

 **************************************************************************

                    xk=(  -0.26761,   0.26761,   0.26761  )

     Band symmetry, C_3v (3m)   point group:

     e(  1 -  1) =     -4.90670  eV     1   --> A_1  L_1       
     e(  2 -  2) =      1.90409  eV     1   --> A_1  L_1       
     e(  3 -  4) =      5.34773  eV     2   --> E    L_3       
     e(  5 -  5) =      8.06920  eV     1   --> A_1  L_1       
     e(  6 -  7) =      9.65719  eV     2   --> E    L_3       
     e(  8 -  8) =     13.28344  eV     1   --> A_1  L_1       
     e(  9 - 10) =     13.42985  eV     2   --> E    L_3       
     e( 11 - 11) =     14.90246  eV     1   --> A_1  L_1       
     e( 12 - 12) =     18.21457  eV     1   --> A_1  L_1       

 **************************************************************************

 **************************************************************************

                    xk=(  -0.26056,   0.26056,   0.26056  )

     Band symmetry, C_3v (3m)   point group:

     e(  1 -  1) =     -4.95253  eV     1   --> A_1  L_1       
     e(  2 -  2) =      2.02892  eV     1   --> A_1  L_1       
     e(  3 -  4) =      5.37048  eV     2   --> E    L_3       
     e(  5 -  5) =      8.09435  eV     1   --> A_1  L_1       
     e(  6 -  7) =      9.65099  eV     2   --> E    L_3       
     e(  8 -  8) =     13.17655  eV     1   --> A_1  L_1       
     e(  9 - 10) =     13.38071  eV     2   --> E    L_3       
     e( 11 - 11) =     14.92214  eV     1   --> A_1  L_1       
     e( 12 - 12) =     18.06153  eV     1   --> A_1  L_1       

 **************************************************************************

 **************************************************************************

                    xk=(  -0.25352,   0.25352,   0.25352  )

     Band symmetry, C_3v (3m)   point group:

     e(  1 -  1) =     -4.99737  eV     1   --> A_1  L_1       
     e(  2 -  2) =      2.15484  eV     1   --> A_1  L_1       
     e(  3 -  4) =      5.39377  eV     2   --> E    L_3       
     e(  5 -  5) =      8.12003  eV     1   --> A_1  L_1       
     e(  6 -  7) =      9.64250  eV     2   --> E    L_3       
     e(  8 -  8) =     13.06582  eV     1   --> A_1  L_1       
     e(  9 - 10) =     13.33667  eV     2   --> E    L_3       
     e( 11 - 11) =     14.94511  eV     1   --> A_1  L_1       
     e( 12 - 12) =     17.91119  eV     1   --> A_1  L_1       

 **************************************************************************

 **************************************************************************

                    xk=(  -0.24648,   0.24648,   0.24648  )

     Band symmetry, C_3v (3m)   point group:

     e(  1 -  1) =     -5.04119  eV     1   --> A_1  L_1       
     e(  2 -  2) =      2.28179  eV     1   --> A_1  L_1       
     e(  3 -  4) =      5.41760  eV     2   --> E    L_3       
     e(  5 -  5) =      8.14619  eV     1   --> A_1  L_1       
     e(  6 -  7) =      9.63163  eV     2   --> E    L_3       
     e(  8 -  8) =     12.95203  eV     1   --> A_1  L_1       
     e(  9 - 10) =     13.29782  eV     2   --> E    L_3       
     e( 11 - 11) =     14.97021  eV     1   --> A_1  L_1       
     e( 12 - 12) =     17.76428  eV     1   --> A_1  L_1       

 **************************************************************************

 **************************************************************************

                    xk=(  -0.23944,   0.23944,   0.23944  )

     Band symmetry, C_3v (3m)   point group:

     e(  1 -  1) =     -5.08396  eV     1   --> A_1  L_1       
     e(  2 -  2) =      2.40971  eV     1   --> A_1  L_1       
     e(  3 -  4) =      5.44194  eV     2   --> E    L_3       
     e(  5 -  5) =      8.17281  eV     1   --> A_1  L_1       
     e(  6 -  7) =      9.61832  eV     2   --> E    L_3       
     e(  8 -  8) =     12.83578  eV     1   --> A_1  L_1       
     e(  9 - 10) =     13.26420  eV     2   --> E    L_3       
     e( 11 - 11) =     14.99633  eV     1   --> A_1  L_1       
     e( 12 - 12) =     17.62157  eV     1   --> A_1  L_1       

 **************************************************************************

 **************************************************************************

                    xk=(  -0.23239,   0.23239,   0.23239  )

     Band symmetry, C_3v (3m)   point group:

     e(  1 -  1) =     -5.12567  eV     1   --> A_1  L_1       
     e(  2 -  2) =      2.53854  eV     1   --> A_1  L_1       
     e(  3 -  4) =      5.46677  eV     2   --> E    L_3       
     e(  5 -  5) =      8.19984  eV     1   --> A_1  L_1       
     e(  6 -  7) =      9.60254  eV     2   --> E    L_3       
     e(  8 -  8) =     12.71753  eV     1   --> A_1  L_1       
     e(  9 - 10) =     13.23584  eV     2   --> E    L_3       
     e( 11 - 11) =     15.02241  eV     1   --> A_1  L_1       
     e( 12 - 12) =     17.48389  eV     1   --> A_1  L_1       

 **************************************************************************

 **************************************************************************

                    xk=(  -0.22535,   0.22535,   0.22535  )

     Band symmetry, C_3v (3m)   point group:

     e(  1 -  1) =     -5.16630  eV     1   --> A_1  L_1       
     e(  2 -  2) =      2.66821  eV     1   --> A_1  L_1       
     e(  3 -  4) =      5.49206  eV     2   --> E    L_3       
     e(  5 -  5) =      8.22724  eV     1   --> A_1  L_1       
     e(  6 -  7) =      9.58429  eV     2   --> E    L_3       
     e(  8 -  8) =     12.59765  eV     1   --> A_1  L_1       
     e(  9 - 10) =     13.21272  eV     2   --> E    L_3       
     e( 11 - 11) =     15.04735  eV     1   --> A_1  L_1       
     e( 12 - 12) =     17.35217  eV     1   --> A_1  L_1       

 **************************************************************************

 **************************************************************************

                    xk=(  -0.21831,   0.21831,   0.21831  )

     Band symmetry, C_3v (3m)   point group:

     e(  1 -  1) =     -5.20581  eV     1   --> A_1  L_1       
     e(  2 -  2) =      2.79866  eV     1   --> A_1  L_1       
     e(  3 -  4) =      5.51779  eV     2   --> E    L_3       
     e(  5 -  5) =      8.25497  eV     1   --> A_1  L_1       
     e(  6 -  7) =      9.56360  eV     2   --> E    L_3       
     e(  8 -  8) =     12.47644  eV     1   --> A_1  L_1       
     e(  9 - 10) =     13.19482  eV     2   --> E    L_3       
     e( 11 - 11) =     15.06999  eV     1   --> A_1  L_1       
     e( 12 - 12) =     17.22748  eV     1   --> A_1  L_1       

 **************************************************************************

 **************************************************************************

                    xk=(  -0.21127,   0.21127,   0.21127  )

     Band symmetry, C_3v (3m)   point group:

     e(  1 -  1) =     -5.24420  eV     1   --> A_1  L_1       
     e(  2 -  2) =      2.92982  eV     1   --> A_1  L_1       
     e(  3 -  4) =      5.54391  eV     2   --> E    L_3       
     e(  5 -  5) =      8.28297  eV     1   --> A_1  L_1       
     e(  6 -  7) =      9.54052  eV     2   --> E    L_3       
     e(  8 -  8) =     12.35413  eV     1   --> A_1  L_1       
     e(  9 - 10) =     13.18204  eV     2   --> E    L_3       
     e( 11 - 11) =     15.08905  eV     1   --> A_1  L_1       
     e( 12 - 12) =     17.11101  eV     1   --> A_1  L_1       

 **************************************************************************

 **************************************************************************

                    xk=(  -0.20423,   0.20423,   0.20423  )

     Band symmetry, C_3v (3m)   point group:

     e(  1 -  1) =     -5.28145  eV     1   --> A_1  L_1       
     e(  2 -  2) =      3.06161  eV     1   --> A_1  L_1       
     e(  3 -  4) =      5.57040  eV     2   --> E    L_3       
     e(  5 -  5) =      8.31120  eV     1   --> A_1  L_1       
     e(  6 -  7) =      9.51515  eV     2   --> E    L_3       
     e(  8 -  8) =     12.23092  eV     1   --> A_1  L_1       
     e(  9 - 10) =     13.17427  eV     2   --> E    L_3       
     e( 11 - 11) =     15.10316  eV     1   --> A_1  L_1       
     e( 12 - 12) =     17.00409  eV     1   --> A_1  L_1       

 **************************************************************************

 **************************************************************************

                    xk=(  -0.19718,   0.19718,   0.19718  )

     Band symmetry, C_3v (3m)   point group:

     e(  1 -  1) =     -5.31755  eV     1   --> A_1  L_1       
     e(  2 -  2) =      3.19395  eV     1   --> A_1  L_1       
     e(  3 -  4) =      5.59722  eV     2   --> E    L_3       
     e(  5 -  5) =      8.33957  eV     1   --> A_1  L_1       
     e(  6 -  7) =      9.48761  eV     2   --> E    L_3       
     e(  8 -  8) =     12.10699  eV     1   --> A_1  L_1       
     e(  9 - 10) =     13.17139  eV     2   --> E    L_3       
     e( 11 - 11) =     15.11087  eV     1   --> A_1  L_1       
     e( 12 - 12) =     16.90815  eV     1   --> A_1  L_1       

 **************************************************************************

 **************************************************************************

                    xk=(  -0.19014,   0.19014,   0.19014  )

     Band symmetry, C_3v (3m)   point group:

     e(  1 -  1) =     -5.35247  eV     1   --> A_1  L_1       
     e(  2 -  2) =      3.32677  eV     1   --> A_1  L_1       
     e(  3 -  4) =      5.62432  eV     2   --> E    L_3       
     e(  5 -  5) =      8.36804  eV     1   --> A_1  L_1       
     e(  6 -  7) =      9.45803  eV     2   --> E    L_3       
     e(  8 -  8) =     11.98247  eV     1   --> A_1  L_1       
     e(  9 - 10) =     13.17322  eV     2   --> E    L_3       
     e( 11 - 11) =     15.11074  eV     1   --> A_1  L_1       
     e( 12 - 12) =     16.82464  eV     1   --> A_1  L_1       

 **************************************************************************

 **************************************************************************

                    xk=(  -0.18310,   0.18310,   0.18310  )

     Band symmetry, C_3v (3m)   point group:

     e(  1 -  1) =     -5.38621  eV     1   --> A_1  L_1       
     e(  2 -  2) =      3.45997  eV     1   --> A_1  L_1       
     e(  3 -  4) =      5.65167  eV     2   --> E    L_3       
     e(  5 -  5) =      8.39653  eV     1   --> A_1  L_1       
     e(  6 -  7) =      9.42659  eV     2   --> E    L_3       
     e(  8 -  8) =     11.85752  eV     1   --> A_1  L_1       
     e(  9 - 10) =     13.17955  eV     2   --> E    L_3       
     e( 11 - 11) =     15.10146  eV     1   --> A_1  L_1       
     e( 12 - 12) =     16.75484  eV     1   --> A_1  L_1       

 **************************************************************************

 **************************************************************************

                    xk=(  -0.17606,   0.17606,   0.17606  )

     Band symmetry, C_3v (3m)   point group:

     e(  1 -  1) =     -5.41876  eV     1   --> A_1  L_1       
     e(  2 -  2) =      3.59345  eV     1   --> A_1  L_1       
     e(  3 -  4) =      5.67920  eV     2   --> E    L_3       
     e(  5 -  5) =      8.42494  eV     1   --> A_1  L_1       
     e(  6 -  7) =      9.39348  eV     2   --> E    L_3       
     e(  8 -  8) =     11.73226  eV     1   --> A_1  L_1       
     e(  9 - 10) =     13.19018  eV     2   --> E    L_3       
     e( 11 - 11) =     15.08211  eV     1   --> A_1  L_1       
     e( 12 - 12) =     16.69970  eV     1   --> A_1  L_1       

 **************************************************************************

 **************************************************************************

                    xk=(  -0.16901,   0.16901,   0.16901  )

     Band symmetry, C_3v (3m)   point group:

     e(  1 -  1) =     -5.45010  eV     1   --> A_1  L_1       
     e(  2 -  2) =      3.72712  eV     1   --> A_1  L_1       
     e(  3 -  4) =      5.70687  eV     2   --> E    L_3       
     e(  5 -  5) =      8.45321  eV     1   --> A_1  L_1       
     e(  6 -  7) =      9.35890  eV     2   --> E    L_3       
     e(  8 -  8) =     11.60683  eV     1   --> A_1  L_1       
     e(  9 - 10) =     13.20485  eV     2   --> E    L_3       
     e( 11 - 11) =     15.05229  eV     1   --> A_1  L_1       
     e( 12 - 12) =     16.65959  eV     1   --> A_1  L_1       

 **************************************************************************

 **************************************************************************

                    xk=(  -0.16197,   0.16197,   0.16197  )

     Band symmetry, C_3v (3m)   point group:

     e(  1 -  1) =     -5.48022  eV     1   --> A_1  L_1       
     e(  2 -  2) =      3.86085  eV     1   --> A_1  L_1       
     e(  3 -  4) =      5.73461  eV     2   --> E    L_3       
     e(  5 -  5) =      8.48122  eV     1   --> A_1  L_1       
     e(  6 -  7) =      9.32307  eV     2   --> E    L_3       
     e(  8 -  8) =     11.48137  eV     1   --> A_1  L_1       
     e(  9 - 10) =     13.22331  eV     2   --> E    L_3       
     e( 11 - 11) =     15.01227  eV     1   --> A_1  L_1       
     e( 12 - 12) =     16.63426  eV     1   --> A_1  L_1       

 **************************************************************************

 **************************************************************************

                    xk=(  -0.15493,   0.15493,   0.15493  )

     Band symmetry, C_3v (3m)   point group:

     e(  1 -  1) =     -5.50912  eV     1   --> A_1  L_1       
     e(  2 -  2) =      3.99450  eV     1   --> A_1  L_1       
     e(  3 -  4) =      5.76236  eV     2   --> E    L_3       
     e(  5 -  5) =      8.50886  eV     1   --> A_1  L_1       
     e(  6 -  7) =      9.28621  eV     2   --> E    L_3       
     e(  8 -  8) =     11.35603  eV     1   --> A_1  L_1       
     e(  9 - 10) =     13.24528  eV     2   --> E    L_3       
     e( 11 - 11) =     14.96296  eV     1   --> A_1  L_1       
     e( 12 - 12) =     16.62278  eV     1   --> A_1  L_1       

 **************************************************************************

 **************************************************************************

                    xk=(  -0.14789,   0.14789,   0.14789  )

     Band symmetry, C_3v (3m)   point group:

     e(  1 -  1) =     -5.53678  eV     1   --> A_1  L_1       
     e(  2 -  2) =      4.12795  eV     1   --> A_1  L_1       
     e(  3 -  4) =      5.79005  eV     2   --> E    L_3       
     e(  5 -  5) =      8.53602  eV     1   --> A_1  L_1       
     e(  6 -  7) =      9.24858  eV     2   --> E    L_3       
     e(  8 -  8) =     11.23100  eV     1   --> A_1  L_1       
     e(  9 - 10) =     13.27046  eV     2   --> E    L_3       
     e( 11 - 11) =     14.90574  eV     1   --> A_1  L_1       
     e( 12 - 12) =     16.62375  eV     1   --> A_1  L_1       

 **************************************************************************

 **************************************************************************

                    xk=(  -0.14085,   0.14085,   0.14085  )

     Band symmetry, C_3v (3m)   point group:

     e(  1 -  1) =     -5.56320  eV     1   --> A_1  L_1       
     e(  2 -  2) =      4.26102  eV     1   --> A_1  L_1       
     e(  3 -  4) =      5.81760  eV     2   --> E    L_3       
     e(  5 -  5) =      8.56255  eV     1   --> A_1  L_1       
     e(  6 -  7) =      9.21040  eV     2   --> E    L_3       
     e(  8 -  8) =     11.10647  eV     1   --> A_1  L_1       
     e(  9 - 10) =     13.29854  eV     2   --> E    L_3       
     e( 11 - 11) =     14.84227  eV     1   --> A_1  L_1       
     e( 12 - 12) =     16.63549  eV     1   --> A_1  L_1       

 **************************************************************************

 **************************************************************************

                    xk=(  -0.13380,   0.13380,   0.13380  )

     Band symmetry, C_3v (3m)   point group:

     e(  1 -  1) =     -5.58838  eV     1   --> A_1  L_1       
     e(  2 -  2) =      4.39353  eV     1   --> A_1  L_1       
     e(  3 -  4) =      5.84493  eV     2   --> E    L_3       
     e(  5 -  5) =      8.58832  eV     1   --> A_1  L_1       
     e(  6 -  7) =      9.17193  eV     2   --> E    L_3       
     e(  8 -  8) =     10.98266  eV     1   --> A_1  L_1       
     e(  9 - 10) =     13.32922  eV     2   --> E    L_3       
     e( 11 - 11) =     14.77425  eV     1   --> A_1  L_1       
     e( 12 - 12) =     16.65625  eV     1   --> A_1  L_1       

 **************************************************************************

 **************************************************************************

                    xk=(  -0.12676,   0.12676,   0.12676  )

     Band symmetry, C_3v (3m)   point group:

     e(  1 -  1) =     -5.61230  eV     1   --> A_1  L_1       
     e(  2 -  2) =      4.52527  eV     1   --> A_1  L_1       
     e(  3 -  4) =      5.87195  eV     2   --> E    L_3       
     e(  5 -  5) =      8.61315  eV     1   --> A_1  L_1       
     e(  6 -  7) =      9.13341  eV     2   --> E    L_3       
     e(  8 -  8) =     10.85983  eV     1   --> A_1  L_1       
     e(  9 - 10) =     13.36214  eV     2   --> E    L_3       
     e( 11 - 11) =     14.70328  eV     1   --> A_1  L_1       
     e( 12 - 12) =     16.68435  eV     1   --> A_1  L_1       

 **************************************************************************

 **************************************************************************

                    xk=(  -0.11972,   0.11972,   0.11972  )

     Band symmetry, C_3v (3m)   point group:

     e(  1 -  1) =     -5.63496  eV     1   --> A_1  L_1       
     e(  2 -  2) =      4.65601  eV     1   --> A_1  L_1       
     e(  3 -  4) =      5.89856  eV     2   --> E    L_3       
     e(  5 -  5) =      8.63685  eV     1   --> A_1  L_1       
     e(  6 -  7) =      9.09509  eV     2   --> E    L_3       
     e(  8 -  8) =     10.73831  eV     1   --> A_1  L_1       
     e(  9 - 10) =     13.39697  eV     2   --> E    L_3       
     e( 11 - 11) =     14.63081  eV     1   --> A_1  L_1       
     e( 12 - 12) =     16.71829  eV     1   --> A_1  L_1       

 **************************************************************************

 **************************************************************************

                    xk=(  -0.11268,   0.11268,   0.11268  )

     Band symmetry, C_3v (3m)   point group:

     e(  1 -  1) =     -5.65635  eV     1   --> A_1  L_1       
     e(  2 -  2) =      4.78546  eV     1   --> A_1  L_1       
     e(  3 -  4) =      5.92466  eV     2   --> E    L_3       
     e(  5 -  5) =      8.65921  eV     1   --> A_1  L_1       
     e(  6 -  7) =      9.05722  eV     2   --> E    L_3       
     e(  8 -  8) =     10.61846  eV     1   --> A_1  L_1       
     e(  9 - 10) =     13.43336  eV     2   --> E    L_3       
     e( 11 - 11) =     14.55809  eV     1   --> A_1  L_1       
     e( 12 - 12) =     16.75670  eV     1   --> A_1  L_1       

 **************************************************************************

 **************************************************************************

                    xk=(  -0.10563,   0.10563,   0.10563  )

     Band symmetry, C_3v (3m)   point group:

     e(  1 -  1) =     -5.67646  eV     1   --> A_1  L_1       
     e(  2 -  2) =      4.91331  eV     1   --> A_1  L_1       
     e(  3 -  4) =      5.95013  eV     2   --> E    L_3       
     e(  5 -  5) =      8.67998  eV     1   --> A_1  L_1       
     e(  6 -  7) =      9.02003  eV     2   --> E    L_3       
     e(  8 -  8) =     10.50071  eV     1   --> A_1  L_1       
     e(  9 - 10) =     13.47090  eV     2   --> E    L_3       
     e( 11 - 11) =     14.48617  eV     1   --> A_1  L_1       
     e( 12 - 12) =     16.79841  eV     1   --> A_1  L_1       

 **************************************************************************

 **************************************************************************

                    xk=(  -0.09859,   0.09859,   0.09859  )

     Band symmetry, C_3v (3m)   point group:

     e(  1 -  1) =     -5.69530  eV     1   --> A_1  L_1       
     e(  2 -  2) =      5.03920  eV     1   --> A_1  L_1       
     e(  3 -  4) =      5.97487  eV     2   --> E    L_3       
     e(  5 -  5) =      8.69891  eV     1   --> A_1  L_1       
     e(  6 -  7) =      8.98378  eV     2   --> E    L_3       
     e(  8 -  8) =     10.38558  eV     1   --> A_1  L_1       
     e(  9 - 10) =     13.50923  eV     2   --> E    L_3       
     e( 11 - 11) =     14.41593  eV     1   --> A_1  L_1       
     e( 12 - 12) =     16.84238  eV     1   --> A_1  L_1       

 **************************************************************************

 **************************************************************************

                    xk=(  -0.09155,   0.09155,   0.09155  )

     Band symmetry, C_3v (3m)   point group:

     e(  1 -  1) =     -5.71286  eV     1   --> A_1  L_1       
     e(  2 -  2) =      5.16267  eV     1   --> A_1  L_1       
     e(  3 -  4) =      5.99874  eV     2   --> E    L_3       
     e(  5 -  5) =      8.71570  eV     1   --> A_1  L_1       
     e(  6 -  7) =      8.94870  eV     2   --> E    L_3       
     e(  8 -  8) =     10.27367  eV     1   --> A_1  L_1       
     e(  9 - 10) =     13.54792  eV     2   --> E    L_3       
     e( 11 - 11) =     14.34812  eV     1   --> A_1  L_1       
     e( 12 - 12) =     16.88767  eV     1   --> A_1  L_1       

 **************************************************************************

 **************************************************************************

                    xk=(  -0.08451,   0.08451,   0.08451  )

     Band symmetry, C_3v (3m)   point group:

     e(  1 -  1) =     -5.72914  eV     1   --> A_1  L_1       
     e(  2 -  2) =      5.28325  eV     1   --> A_1  L_1       
     e(  3 -  4) =      6.02163  eV     2   --> E    L_3       
     e(  5 -  5) =      8.73000  eV     1   --> A_1  L_1       
     e(  6 -  7) =      8.91504  eV     2   --> E    L_3       
     e(  8 -  8) =     10.16570  eV     1   --> A_1  L_1       
     e(  9 - 10) =     13.58656  eV     2   --> E    L_3       
     e( 11 - 11) =     14.28337  eV     1   --> A_1  L_1       
     e( 12 - 12) =     16.93346  eV     1   --> A_1  L_1       

 **************************************************************************

 **************************************************************************

                    xk=(  -0.07746,   0.07746,   0.07746  )

     Band symmetry, C_3v (3m)   point group:

     e(  1 -  1) =     -5.74412  eV     1   --> A_1  L_1       
     e(  2 -  2) =      5.40031  eV     1   --> A_1  L_1       
     e(  3 -  4) =      6.04338  eV     2   --> E    L_3       
     e(  5 -  5) =      8.74146  eV     1   --> A_1  L_1       
     e(  6 -  7) =      8.88301  eV     2   --> E    L_3       
     e(  8 -  8) =     10.06249  eV     1   --> A_1  L_1       
     e(  9 - 10) =     13.62469  eV     2   --> E    L_3       
     e( 11 - 11) =     14.22219  eV     1   --> A_1  L_1       
     e( 12 - 12) =     16.97897  eV     1   --> A_1  L_1       

 **************************************************************************

 **************************************************************************

                    xk=(  -0.07042,   0.07042,   0.07042  )

     Band symmetry, C_3v (3m)   point group:

     e(  1 -  1) =     -5.75781  eV     1   --> A_1  L_1       
     e(  2 -  2) =      5.51318  eV     1   --> A_1  L_1       
     e(  3 -  4) =      6.06387  eV     2   --> E    L_3       
     e(  5 -  5) =      8.74973  eV     1   --> A_1  L_1       
     e(  6 -  7) =      8.85286  eV     2   --> E    L_3       
     e(  8 -  8) =      9.96498  eV     1   --> A_1  L_1       
     e(  9 - 10) =     13.66185  eV     2   --> E    L_3       
     e( 11 - 11) =     14.16503  eV     1   --> A_1  L_1       
     e( 12 - 12) =     17.02349  eV     1   --> A_1  L_1       

 **************************************************************************

 **************************************************************************

                    xk=(  -0.06338,   0.06338,   0.06338  )

     Band symmetry, C_3v (3m)   point group:

     e(  1 -  1) =     -5.77021  eV     1   --> A_1  L_1       
     e(  2 -  2) =      5.62103  eV     1   --> A_1  L_1       
     e(  3 -  4) =      6.08296  eV     2   --> E    L_3       
     e(  5 -  5) =      8.75446  eV     1   --> A_1  L_1       
     e(  6 -  7) =      8.82480  eV     2   --> E    L_3       
     e(  8 -  8) =      9.87420  eV     1   --> A_1  L_1       
     e(  9 - 10) =     13.69757  eV     2   --> E    L_3       
     e( 11 - 11) =     14.11229  eV     1   --> A_1  L_1       
     e( 12 - 12) =     17.06632  eV     1   --> A_1  L_1       

 **************************************************************************

 **************************************************************************

                    xk=(  -0.05634,   0.05634,   0.05634  )

     Band symmetry, C_3v (3m)   point group:

     e(  1 -  1) =     -5.78131  eV     1   --> A_1  L_1       
     e(  2 -  2) =      5.72292  eV     1   --> A_1  L_1       
     e(  3 -  4) =      6.10051  eV     2   --> E    L_3       
     e(  5 -  5) =      8.75542  eV     1   --> A_1  L_1       
     e(  6 -  7) =      8.79904  eV     2   --> E    L_3       
     e(  8 -  8) =      9.79122  eV     1   --> A_1  L_1       
     e(  9 - 10) =     13.73135  eV     2   --> E    L_3       
     e( 11 - 11) =     14.06429  eV     1   --> A_1  L_1       
     e( 12 - 12) =     17.10682  eV     1   --> A_1  L_1       

 **************************************************************************

 **************************************************************************

                    xk=(  -0.04930,   0.04930,   0.04930  )

     Band symmetry, C_3v (3m)   point group:

     e(  1 -  1) =     -5.79110  eV     1   --> A_1  L_1       
     e(  2 -  2) =      5.81774  eV     1   --> A_1  L_1       
     e(  3 -  4) =      6.11638  eV     2   --> E    L_3       
     e(  5 -  5) =      8.75256  eV     1   --> A_1  L_1       
     e(  6 -  7) =      8.77578  eV     2   --> E    L_3       
     e(  8 -  8) =      9.71708  eV     1   --> A_1  L_1       
     e(  9 - 10) =     13.76268  eV     2   --> E    L_3       
     e( 11 - 11) =     14.02130  eV     1   --> A_1  L_1       
     e( 12 - 12) =     17.14433  eV     1   --> A_1  L_1       

 **************************************************************************

 **************************************************************************

                    xk=(  -0.04225,   0.04225,   0.04225  )

     Band symmetry, C_3v (3m)   point group:

     e(  1 -  1) =     -5.79960  eV     1   --> A_1  L_1       
     e(  2 -  2) =      5.90426  eV     1   --> A_1  L_1       
     e(  3 -  4) =      6.13045  eV     2   --> E    L_3       
     e(  5 -  5) =      8.74613  eV     1   --> A_1  L_1       
     e(  6 -  7) =      8.75520  eV     2   --> E    L_3       
     e(  8 -  8) =      9.65267  eV     1   --> A_1  L_1       
     e(  9 - 10) =     13.79109  eV     2   --> E    L_3       
     e( 11 - 11) =     13.98358  eV     1   --> A_1  L_1       
     e( 12 - 12) =     17.17828  eV     1   --> A_1  L_1       

 **************************************************************************

 **************************************************************************

                    xk=(  -0.03521,   0.03521,   0.03521  )

     Band symmetry, C_3v (3m)   point group:

     e(  1 -  1) =     -5.80679  eV     1   --> A_1  L_1       
     e(  2 -  2) =      5.98110  eV     1   --> A_1  L_1       
     e(  3 -  4) =      6.14258  eV     2   --> E    L_3       
     e(  5 -  5) =      8.73683  eV     1   --> A_1  L_1       
     e(  6 -  7) =      8.73747  eV     2   --> E    L_3       
     e(  8 -  8) =      9.59856  eV     1   --> A_1  L_1       
     e(  9 - 10) =     13.81609  eV     2   --> E    L_3       
     e( 11 - 11) =     13.95132  eV     1   --> A_1  L_1       
     e( 12 - 12) =     17.20810  eV     1   --> A_1  L_1       

 **************************************************************************

 **************************************************************************

                    xk=(  -0.02817,   0.02817,   0.02817  )

     Band symmetry, C_3v (3m)   point group:

     e(  1 -  1) =     -5.81268  eV     1   --> A_1  L_1       
     e(  2 -  2) =      6.04679  eV     1   --> A_1  L_1       
     e(  3 -  4) =      6.15267  eV     2   --> E    L_3       
     e(  5 -  6) =      8.72275  eV     2   --> E    L_3       
     e(  7 -  7) =      8.72580  eV     1   --> A_1  L_1       
     e(  8 -  8) =      9.55500  eV     1   --> A_1  L_1       
     e(  9 - 10) =     13.83724  eV     2   --> E    L_3       
     e( 11 - 11) =     13.92470  eV     1   --> A_1  L_1       
     e( 12 - 12) =     17.23328  eV     1   --> A_1  L_1       

 **************************************************************************

 **************************************************************************

                    xk=(  -0.02113,   0.02113,   0.02113  )

     Band symmetry, C_3v (3m)   point group:

     e(  1 -  1) =     -5.81726  eV     1   --> A_1  L_1       
     e(  2 -  2) =      6.09987  eV     1   --> A_1  L_1       
     e(  3 -  4) =      6.16063  eV     2   --> E    L_3       
     e(  5 -  6) =      8.71117  eV     2   --> E    L_3       
     e(  7 -  7) =      8.71460  eV     1   --> A_1  L_1       
     e(  8 -  8) =      9.52184  eV     1   --> A_1  L_1       
     e(  9 - 10) =     13.85415  eV     2   --> E    L_3       
     e( 11 - 11) =     13.90385  eV     1   --> A_1  L_1       
     e( 12 - 12) =     17.25337  eV     1   --> A_1  L_1       

 **************************************************************************

 **************************************************************************

                    xk=(  -0.01408,   0.01408,   0.01408  )

     Band symmetry, C_3v (3m)   point group:

     e(  1 -  1) =     -5.82053  eV     1   --> A_1  L_1       
     e(  2 -  2) =      6.13896  eV     1   --> A_1  L_1       
     e(  3 -  4) =      6.16637  eV     2   --> E    L_3       
     e(  5 -  6) =      8.70282  eV     2   --> E    L_3       
     e(  7 -  7) =      8.70494  eV     1   --> A_1  L_1       
     e(  8 -  8) =      9.49868  eV     1   --> A_1  L_1       
     e(  9 - 10) =     13.86648  eV     2   --> E    L_3       
     e( 11 - 11) =     13.88889  eV     1   --> A_1  L_1       
     e( 12 - 12) =     17.26800  eV     1   --> A_1  L_1       

 **************************************************************************

 **************************************************************************

                    xk=(  -0.00704,   0.00704,   0.00704  )

     Band symmetry, C_3v (3m)   point group:

     e(  1 -  1) =     -5.82249  eV     1   --> A_1  L_1       
     e(  2 -  2) =      6.16292  eV     1   --> A_1  L_1       
     e(  3 -  4) =      6.16984  eV     2   --> E    L_3       
     e(  5 -  6) =      8.69777  eV     2   --> E    L_3       
     e(  7 -  7) =      8.69840  eV     1   --> A_1  L_1       
     e(  8 -  8) =      9.48504  eV     1   --> A_1  L_1       
     e(  9 - 10) =     13.87399  eV     2   --> E    L_3       
     e( 11 - 11) =     13.87988  eV     1   --> A_1  L_1       
     e( 12 - 12) =     17.27689  eV     1   --> A_1  L_1       

 **************************************************************************

 **************************************************************************

                    xk=(   0.00000,   0.00000,   0.00000  )

     point group O_h (m-3m) 
     there are 10 classes
     the character table:

       E     8C3   3C2   6C4   6C2'  i     8S6   3s_h  6S4   6s_d 
A_1g   1.00  1.00  1.00  1.00  1.00  1.00  1.00  1.00  1.00  1.00
A_2g   1.00  1.00  1.00 -1.00 -1.00  1.00  1.00  1.00 -1.00 -1.00
E_g    2.00 -1.00  2.00  0.00  0.00  2.00 -1.00  2.00  0.00  0.00
T_1g   3.00  0.00 -1.00  1.00 -1.00  3.00  0.00 -1.00  1.00 -1.00
T_2g   3.00  0.00 -1.00 -1.00  1.00  3.00  0.00 -1.00 -1.00  1.00
A_1u   1.00  1.00  1.00  1.00  1.00 -1.00 -1.00 -1.00 -1.00 -1.00
A_2u   1.00  1.00  1.00 -1.00 -1.00 -1.00 -1.00 -1.00  1.00  1.00
E_u    2.00 -1.00  2.00  0.00  0.00 -2.00  1.00 -2.00  0.00  0.00
T_1u   3.00  0.00 -1.00  1.00 -1.00 -3.00  0.00  1.00 -1.00  1.00
T_2u   3.00  0.00 -1.00 -1.00  1.00 -3.00  0.00  1.00  1.00 -1.00

     the symmetry operations in each class and the name of the first element:

     E        1
                                                                 
     8C3     17   19   20   18   24   21   22   23
                                                                 
     3C2      2    4    3
                                                                 
     6C4      7    8   15   16   12   11
                                                                 
     6C2'     5    6   14   13   10    9
                                                                 
     i       25
                                                                 
     8S6     41   43   44   42   48   45   46   47
                                                                 
     3s_h    26   28   27
                                                                 
     6S4     31   32   39   40   36   35
                                                                 
     6s_d    29   30   38   37   34   33
                                                                 

     Band symmetry, O_h (m-3m)  point group:

     e(  1 -  1) =     -5.82314  eV     1   --> A_1g G_1   G_1+
     e(  2 -  4) =      6.17100  eV     3   --> T_2g G_25' G_5+
     e(  5 -  7) =      8.69609  eV     3   --> T_1u G_15  G_4-
     e(  8 -  8) =      9.48054  eV     1   --> A_2u G_2'  G_2-
     e(  9 - 10) =     13.87650  eV     2   --> E_u  G_12' G_3-
     e( 11 - 11) =     13.87687  eV     1   --> A_1g G_1   G_1+
     e( 12 - 12) =     17.27988  eV     1   -->   ?

 **************************************************************************

 **************************************************************************

                    xk=(  -0.01724,   0.00000,   0.00000  )

     point group C_4v (4mm) 
     there are  5 classes
     the character table:

       E     2C4   C2    2s_v  2s_d 
A_1    1.00  1.00  1.00  1.00  1.00
A_2    1.00  1.00  1.00 -1.00 -1.00
B_1    1.00 -1.00  1.00  1.00 -1.00
B_2    1.00 -1.00  1.00 -1.00  1.00
E      2.00  0.00 -2.00  0.00  0.00

     the symmetry operations in each class and the name of the first element:

     E        1
                                                                 
     2C4      3    4
                                                                 
     C2       2
                                                                 
     2s_v     5    6
                                                                 
     2s_d     7    8
                                                                 

     Band symmetry, C_4v (4mm)  point group:

     e(  1 -  1) =     -5.82184  eV     1   --> A_1  G_1 D_1   
     e(  2 -  2) =      6.16189  eV     1   --> B_2  G_4 D_2'  
     e(  3 -  4) =      6.16517  eV     2   --> E    G_5 D_5   
     e(  5 -  5) =      8.69265  eV     1   --> A_1  G_1 D_1   
     e(  6 -  7) =      8.70351  eV     2   --> E    G_5 D_5   
     e(  8 -  8) =      9.48947  eV     1   --> B_2  G_4 D_2'  
     e(  9 -  9) =     13.86503  eV     1   --> B_2  G_4 D_2'  
     e( 10 - 10) =     13.87795  eV     1   --> A_2  G_2 D_1'  
     e( 11 - 11) =     13.88288  eV     1   --> A_1  G_1 D_1   
     e( 12 - 12) =     17.28217  eV     1   -->   ?

 **************************************************************************

 **************************************************************************

                    xk=(  -0.03448,   0.00000,   0.00000  )

     Band symmetry, C_4v (4mm)  point group:

     e(  1 -  1) =     -5.81792  eV     1   --> A_1  G_1 D_1   
     e(  2 -  2) =      6.13488  eV     1   --> B_2  G_4 D_2'  
     e(  3 -  4) =      6.14791  eV     2   --> E    G_5 D_5   
     e(  5 -  5) =      8.68237  eV     1   --> A_1  G_1 D_1   
     e(  6 -  7) =      8.72556  eV     2   --> E    G_5 D_5   
     e(  8 -  8) =      9.51593  eV     1   --> B_2  G_4 D_2'  
     e(  9 -  9) =     13.83111  eV     1   --> B_2  G_4 D_2'  
     e( 10 - 10) =     13.88226  eV     1   --> A_2  G_2 D_1'  
     e( 11 - 11) =     13.90085  eV     1   --> A_1  G_1 D_1   
     e( 12 - 12) =     17.28902  eV     1   -->   ?

 **************************************************************************

 **************************************************************************

                    xk=(  -0.05172,   0.00000,   0.00000  )

     Band symmetry, C_4v (4mm)  point group:

     e(  1 -  1) =     -5.81138  eV     1   --> A_1  G_1 D_1   
     e(  2 -  2) =      6.09085  eV     1   --> B_2  G_4 D_2'  
     e(  3 -  4) =      6.11981  eV     2   --> E    G_5 D_5   
     e(  5 -  5) =      8.66543  eV     1   --> A_1  G_1 D_1   
     e(  6 -  7) =      8.76163  eV     2   --> E    G_5 D_5   
     e(  8 -  8) =      9.55891  eV     1   --> B_2  G_4 D_2'  
     e(  9 -  9) =     13.77629  eV     1   --> B_2  G_4 D_2'  
     e( 10 - 10) =     13.88946  eV     1   --> A_2  G_2 D_1'  
     e( 11 - 11) =     13.93062  eV     1   --> A_1  G_1 D_1   
     e( 12 - 12) =     17.30046  eV     1   -->   ?

 **************************************************************************

 **************************************************************************

                    xk=(  -0.06897,   0.00000,   0.00000  )

     Band symmetry, C_4v (4mm)  point group:

     e(  1 -  1) =     -5.80223  eV     1   --> A_1  G_1 D_1   
     e(  2 -  2) =      6.03112  eV     1   --> B_2  G_4 D_2'  
     e(  3 -  4) =      6.08178  eV     2   --> E    G_5 D_5   
     e(  5 -  5) =      8.64206  eV     1   --> A_1  G_1 D_1   
     e(  6 -  7) =      8.81080  eV     2   --> E    G_5 D_5   
     e(  8 -  8) =      9.61686  eV     1   --> B_2  G_4 D_2'  
     e(  9 -  9) =     13.70279  eV     1   --> B_2  G_4 D_2'  
     e( 10 - 10) =     13.89954  eV     1   --> A_2  G_2 D_1'  
     e( 11 - 11) =     13.97192  eV     1   --> A_1  G_1 D_1   
     e( 12 - 12) =     17.31647  eV     1   -->   ?

 **************************************************************************

 **************************************************************************

                    xk=(  -0.08621,   0.00000,   0.00000  )

     Band symmetry, C_4v (4mm)  point group:

     e(  1 -  1) =     -5.79047  eV     1   --> A_1  G_1 D_1   
     e(  2 -  2) =      5.95727  eV     1   --> B_2  G_4 D_2'  
     e(  3 -  4) =      6.03494  eV     2   --> E    G_5 D_5   
     e(  5 -  5) =      8.61263  eV     1   --> A_1  G_1 D_1   
     e(  6 -  7) =      8.87197  eV     2   --> E    G_5 D_5   
     e(  8 -  8) =      9.68782  eV     1   --> B_2  G_4 D_2'  
     e(  9 -  9) =     13.61344  eV     1   --> B_2  G_4 D_2'  
     e( 10 - 10) =     13.91251  eV     1   --> A_2  G_2 D_1'  
     e( 11 - 11) =     14.02441  eV     1   --> A_1  G_1 D_1   
     e( 12 - 12) =     17.33706  eV     1   -->   ?

 **************************************************************************

 **************************************************************************

                    xk=(  -0.10345,   0.00000,   0.00000  )

     Band symmetry, C_4v (4mm)  point group:

     e(  1 -  1) =     -5.77610  eV     1   --> A_1  G_1 D_1   
     e(  2 -  2) =      5.87100  eV     1   --> B_2  G_4 D_2'  
     e(  3 -  4) =      5.98048  eV     2   --> E    G_5 D_5   
     e(  5 -  5) =      8.57752  eV     1   --> A_1  G_1 D_1   
     e(  6 -  7) =      8.94393  eV     2   --> E    G_5 D_5   
     e(  8 -  8) =      9.76963  eV     1   --> B_2  G_4 D_2'  
     e(  9 -  9) =     13.51130  eV     1   --> B_2  G_4 D_2'  
     e( 10 - 10) =     13.92835  eV     1   --> A_2  G_2 D_1'  
     e( 11 - 11) =     14.08767  eV     1   --> A_1  G_1 D_1   
     e( 12 - 12) =     17.36220  eV     1   -->   ?

 **************************************************************************

 **************************************************************************

                    xk=(  -0.12069,   0.00000,   0.00000  )

     Band symmetry, C_4v (4mm)  point group:

     e(  1 -  1) =     -5.75912  eV     1   --> A_1  G_1 D_1   
     e(  2 -  2) =      5.77399  eV     1   --> B_2  G_4 D_2'  
     e(  3 -  4) =      5.91958  eV     2   --> E    G_5 D_5   
     e(  5 -  5) =      8.53721  eV     1   --> A_1  G_1 D_1   
     e(  6 -  7) =      9.02547  eV     2   --> E    G_5 D_5   
     e(  8 -  8) =      9.85992  eV     1   --> B_2  G_4 D_2'  
     e(  9 -  9) =     13.39953  eV     1   --> B_2  G_4 D_2'  
     e( 10 - 10) =     13.94707  eV     1   --> A_2  G_2 D_1'  
     e( 11 - 11) =     14.16121  eV     1   --> A_1  G_1 D_1   
     e( 12 - 12) =     17.39190  eV     1   -->   ?

 **************************************************************************

 **************************************************************************

                    xk=(  -0.13793,   0.00000,   0.00000  )

     Band symmetry, C_4v (4mm)  point group:

     e(  1 -  1) =     -5.73953  eV     1   --> A_1  G_1 D_1   
     e(  2 -  2) =      5.66777  eV     1   --> B_2  G_4 D_2'  
     e(  3 -  4) =      5.85338  eV     2   --> E    G_5 D_5   
     e(  5 -  5) =      8.49218  eV     1   --> A_1  G_1 D_1   
     e(  6 -  7) =      9.11546  eV     2   --> E    G_5 D_5   
     e(  8 -  8) =      9.95623  eV     1   --> B_2  G_4 D_2'  
     e(  9 -  9) =     13.28140  eV     1   --> B_2  G_4 D_2'  
     e( 10 - 10) =     13.96868  eV     1   --> A_2  G_2 D_1'  
     e( 11 - 11) =     14.24453  eV     1   --> A_1  G_1 D_1   
     e( 12 - 12) =     17.42614  eV     1   -->   ?

 **************************************************************************

 **************************************************************************

                    xk=(  -0.15517,   0.00000,   0.00000  )

     Band symmetry, C_4v (4mm)  point group:

     e(  1 -  1) =     -5.71735  eV     1   --> A_1  G_1 D_1   
     e(  2 -  2) =      5.55376  eV     1   --> B_2  G_4 D_2'  
     e(  3 -  4) =      5.78288  eV     2   --> E    G_5 D_5   
     e(  5 -  5) =      8.44295  eV     1   --> A_1  G_1 D_1   
     e(  6 -  7) =      9.21288  eV     2   --> E    G_5 D_5   
     e(  8 -  8) =     10.05592  eV     1   --> B_2  G_4 D_2'  
     e(  9 -  9) =     13.16021  eV     1   --> B_2  G_4 D_2'  
     e( 10 - 10) =     13.99316  eV     1   --> A_2  G_2 D_1'  
     e( 11 - 11) =     14.33710  eV     1   --> A_1  G_1 D_1   
     e( 12 - 12) =     17.46492  eV     1   -->   ?

 **************************************************************************

 **************************************************************************

                    xk=(  -0.17241,   0.00000,   0.00000  )

     Band symmetry, C_4v (4mm)  point group:

     e(  1 -  1) =     -5.69257  eV     1   --> A_1  G_1 D_1   
     e(  2 -  2) =      5.43316  eV     1   --> B_2  G_4 D_2'  
     e(  3 -  4) =      5.70900  eV     2   --> E    G_5 D_5   
     e(  5 -  5) =      8.39003  eV     1   --> A_1  G_1 D_1   
     e(  6 -  7) =      9.31679  eV     2   --> E    G_5 D_5   
     e(  8 -  8) =     10.15609  eV     1   --> B_2  G_4 D_2'  
     e(  9 -  9) =     13.03947  eV     1   --> B_2  G_4 D_2'  
     e( 10 - 10) =     14.02052  eV     1   --> A_2  G_2 D_1'  
     e( 11 - 11) =     14.43837  eV     1   --> A_1  G_1 D_1   
     e( 12 - 12) =     17.50822  eV     1   -->   ?

 **************************************************************************

 **************************************************************************

                    xk=(  -0.18966,   0.00000,   0.00000  )

     Band symmetry, C_4v (4mm)  point group:

     e(  1 -  1) =     -5.66519  eV     1   --> A_1  G_1 D_1   
     e(  2 -  2) =      5.30701  eV     1   --> B_2  G_4 D_2'  
     e(  3 -  4) =      5.63252  eV     2   --> E    G_5 D_5   
     e(  5 -  5) =      8.33392  eV     1   --> A_1  G_1 D_1   
     e(  6 -  7) =      9.42641  eV     2   --> E    G_5 D_5   
     e(  8 -  8) =     10.25345  eV     1   --> B_2  G_4 D_2'  
     e(  9 -  9) =     12.92296  eV     1   --> B_2  G_4 D_2'  
     e( 10 - 10) =     14.05075  eV     1   --> A_2  G_2 D_1'  
     e( 11 - 11) =     14.54780  eV     1   --> A_1  G_1 D_1   
     e( 12 - 12) =     17.55600  eV     1   -->   ?

 **************************************************************************

 **************************************************************************

                    xk=(  -0.20690,   0.00000,   0.00000  )

     Band symmetry, C_4v (4mm)  point group:

     e(  1 -  1) =     -5.63522  eV     1   --> A_1  G_1 D_1   
     e(  2 -  2) =      5.17619  eV     1   --> B_2  G_4 D_2'  
     e(  3 -  4) =      5.55410  eV     2   --> E    G_5 D_5   
     e(  5 -  5) =      8.27512  eV     1   --> A_1  G_1 D_1   
     e(  6 -  7) =      9.54103  eV     2   --> E    G_5 D_5   
     e(  8 -  8) =     10.34415  eV     1   --> B_2  G_4 D_2'  
     e(  9 -  9) =     12.81499  eV     1   --> B_2  G_4 D_2'  
     e( 10 - 10) =     14.08386  eV     1   --> A_2  G_2 D_1'  
     e( 11 - 11) =     14.66487  eV     1   --> A_1  G_1 D_1   
     e( 12 - 12) =     17.60825  eV     1   -->   ?

 **************************************************************************

 **************************************************************************

                    xk=(  -0.22414,   0.00000,   0.00000  )

     Band symmetry, C_4v (4mm)  point group:

     e(  1 -  1) =     -5.60267  eV     1   --> A_1  G_1 D_1   
     e(  2 -  2) =      5.04146  eV     1   --> B_2  G_4 D_2'  
     e(  3 -  4) =      5.47434  eV     2   --> E    G_5 D_5   
     e(  5 -  5) =      8.21409  eV     1   --> A_1  G_1 D_1   
     e(  6 -  7) =      9.66006  eV     2   --> E    G_5 D_5   
     e(  8 -  8) =     10.42367  eV     1   --> B_2  G_4 D_2'  
     e(  9 -  9) =     12.72047  eV     1   --> B_2  G_4 D_2'  
     e( 10 - 10) =     14.11985  eV     1   --> A_2  G_2 D_1'  
     e( 11 - 11) =     14.78907  eV     1   --> A_1  G_1 D_1   
     e( 12 - 12) =     17.66495  eV     1   -->   ?

 **************************************************************************

 **************************************************************************

                    xk=(  -0.24138,   0.00000,   0.00000  )

     Band symmetry, C_4v (4mm)  point group:

     e(  1 -  1) =     -5.56754  eV     1   --> A_1  G_1 D_1   
     e(  2 -  2) =      4.90341  eV     1   --> B_2  G_4 D_2'  
     e(  3 -  4) =      5.39371  eV     2   --> E    G_5 D_5   
     e(  5 -  5) =      8.15128  eV     1   --> A_1  G_1 D_1   
     e(  6 -  7) =      9.78299  eV     2   --> E    G_5 D_5   
     e(  8 -  8) =     10.48689  eV     1   --> B_2  G_4 D_2'  
     e(  9 -  9) =     12.64485  eV     1   --> B_2  G_4 D_2'  
     e( 10 - 10) =     14.15872  eV     1   --> A_2  G_2 D_1'  
     e( 11 - 11) =     14.91991  eV     1   --> A_1  G_1 D_1   
     e( 12 - 12) =     17.72603  eV     1   -->   ?

 **************************************************************************

 **************************************************************************

                    xk=(  -0.25862,   0.00000,   0.00000  )

     Band symmetry, C_4v (4mm)  point group:

     e(  1 -  1) =     -5.52984  eV     1   --> A_1  G_1 D_1   
     e(  2 -  2) =      4.76257  eV     1   --> B_2  G_4 D_2'  
     e(  3 -  4) =      5.31264  eV     2   --> E    G_5 D_5   
     e(  5 -  5) =      8.08710  eV     1   --> A_1  G_1 D_1   
     e(  6 -  7) =      9.90938  eV     2   --> E    G_5 D_5   
     e(  8 -  8) =     10.52852  eV     1   --> B_2  G_4 D_2'  
     e(  9 -  9) =     12.59369  eV     1   --> B_2  G_4 D_2'  
     e( 10 - 10) =     14.20046  eV     1   --> A_2  G_2 D_1'  
     e( 11 - 11) =     15.05693  eV     1   --> A_1  G_1 D_1   
     e( 12 - 12) =     17.79145  eV     1   -->   ?

 **************************************************************************

 **************************************************************************

                    xk=(  -0.27586,   0.00000,   0.00000  )

     Band symmetry, C_4v (4mm)  point group:

     e(  1 -  1) =     -5.48957  eV     1   --> A_1  G_1 D_1   
     e(  2 -  2) =      4.61938  eV     1   --> B_2  G_4 D_2'  
     e(  3 -  4) =      5.23148  eV     2   --> E    G_5 D_5   
     e(  5 -  5) =      8.02193  eV     1   --> A_1  G_1 D_1   
     e(  6 -  7) =     10.03887  eV     2   --> E    G_5 D_5   
     e(  8 -  8) =     10.54409  eV     1   --> B_2  G_4 D_2'  
     e(  9 -  9) =     12.57170  eV     1   --> B_2  G_4 D_2'  
     e( 10 - 10) =     14.24507  eV     1   --> A_2  G_2 D_1'  
     e( 11 - 11) =     15.19968  eV     1   --> A_1  G_1 D_1   
     e( 12 - 12) =     17.86116  eV     1   -->   ?

 **************************************************************************

 **************************************************************************

                    xk=(  -0.29310,   0.00000,   0.00000  )

     Band symmetry, C_4v (4mm)  point group:

     e(  1 -  1) =     -5.44674  eV     1   --> A_1  G_1 D_1   
     e(  2 -  2) =      4.47418  eV     1   --> B_2  G_4 D_2'  
     e(  3 -  4) =      5.15053  eV     2   --> E    G_5 D_5   
     e(  5 -  5) =      7.95613  eV     1   --> A_1  G_1 D_1   
     e(  6 -  7) =     10.17112  eV     2   --> E    G_5 D_5   
     e(  8 -  8) =     10.53118  eV     1   --> B_2  G_4 D_2'  
     e(  9 -  9) =     12.58153  eV     1   --> B_2  G_4 D_2'  
     e( 10 - 10) =     14.29255  eV     1   --> A_2  G_2 D_1'  
     e( 11 - 11) =     15.34775  eV     1   --> A_1  G_1 D_1   
     e( 12 - 12) =     17.93506  eV     1   -->   ?

 **************************************************************************

 **************************************************************************

                    xk=(  -0.31034,   0.00000,   0.00000  )

     Band symmetry, C_4v (4mm)  point group:

     e(  1 -  1) =     -5.40136  eV     1   --> A_1  G_1 D_1   
     e(  2 -  2) =      4.32728  eV     1   --> B_2  G_4 D_2'  
[...]
     e(  5 -  5) =      8.95584  eV     1   --> B_2  D_4  S_4  
     e(  6 -  6) =      9.06914  eV     1   --> B_1  D_3  S_3  
     e(  7 -  7) =      9.10394  eV     1   --> A_1  D_1  S_1  
     e(  8 -  8) =     10.98775  eV     1   --> B_1  D_3  S_3  
     e(  9 -  9) =     12.92294  eV     1   --> A_2  D_2  S_2  
     e( 10 - 10) =     13.70502  eV     1   --> B_1  D_3  S_3  
     e( 11 - 11) =     14.88320  eV     1   --> A_1  D_1  S_1  
     e( 12 - 12) =     17.09896  eV     1   --> B_1  D_3  S_3  

 **************************************************************************

 **************************************************************************

                    xk=(  -0.16000,   0.00000,   0.16000  )

     Band symmetry, C_2v (mm2)  point group:

     e(  1 -  1) =     -5.59906  eV     1   --> A_1  D_1  S_1  
     e(  2 -  2) =      4.65958  eV     1   --> B_1  D_3  S_3  
     e(  3 -  3) =      5.34930  eV     1   --> A_1  D_1  S_1  
     e(  4 -  4) =      6.06388  eV     1   --> A_2  D_2  S_2  
     e(  5 -  5) =      8.92620  eV     1   --> B_2  D_4  S_4  
     e(  6 -  6) =      9.05268  eV     1   --> B_1  D_3  S_3  
     e(  7 -  7) =      9.06389  eV     1   --> A_1  D_1  S_1  
     e(  8 -  8) =     10.86414  eV     1   --> B_1  D_3  S_3  
     e(  9 -  9) =     12.99347  eV     1   --> A_2  D_2  S_2  
     e( 10 - 10) =     13.70164  eV     1   --> B_1  D_3  S_3  
     e( 11 - 11) =     14.78310  eV     1   --> A_1  D_1  S_1  
     e( 12 - 12) =     17.10016  eV     1   --> B_1  D_3  S_3  

 **************************************************************************

 **************************************************************************

                    xk=(  -0.15000,   0.00000,   0.15000  )

     Band symmetry, C_2v (mm2)  point group:

     e(  1 -  1) =     -5.62607  eV     1   --> A_1  D_1  S_1  
     e(  2 -  2) =      4.79137  eV     1   --> B_1  D_3  S_3  
     e(  3 -  3) =      5.43420  eV     1   --> A_1  D_1  S_1  
     e(  4 -  4) =      6.07794  eV     1   --> A_2  D_2  S_2  
     e(  5 -  5) =      8.89836  eV     1   --> B_2  D_4  S_4  
     e(  6 -  6) =      9.02530  eV     1   --> A_1  D_1  S_1  
     e(  7 -  7) =      9.03555  eV     1   --> B_1  D_3  S_3  
     e(  8 -  8) =     10.73686  eV     1   --> B_1  D_3  S_3  
     e(  9 -  9) =     13.06562  eV     1   --> A_2  D_2  S_2  
     e( 10 - 10) =     13.70484  eV     1   --> B_1  D_3  S_3  
     e( 11 - 11) =     14.68586  eV     1   --> A_1  D_1  S_1  
     e( 12 - 12) =     17.10434  eV     1   --> B_1  D_3  S_3  

 **************************************************************************

 **************************************************************************

                    xk=(  -0.14000,   0.00000,   0.14000  )

     Band symmetry, C_2v (mm2)  point group:

     e(  1 -  1) =     -5.65137  eV     1   --> A_1  D_1  S_1  
     e(  2 -  2) =      4.92221  eV     1   --> B_1  D_3  S_3  
     e(  3 -  3) =      5.51650  eV     1   --> A_1  D_1  S_1  
     e(  4 -  4) =      6.09083  eV     1   --> A_2  D_2  S_2  
     e(  5 -  5) =      8.87230  eV     1   --> B_2  D_4  S_4  
     e(  6 -  6) =      8.98822  eV     1   --> A_1  D_1  S_1  
     e(  7 -  7) =      9.01768  eV     1   --> B_1  D_3  S_3  
     e(  8 -  8) =     10.60763  eV     1   --> B_1  D_3  S_3  
     e(  9 -  9) =     13.13896  eV     1   --> A_2  D_2  S_2  
     e( 10 - 10) =     13.71309  eV     1   --> B_1  D_3  S_3  
     e( 11 - 11) =     14.59202  eV     1   --> A_1  D_1  S_1  
     e( 12 - 12) =     17.11129  eV     1   --> B_1  D_3  S_3  

 **************************************************************************

 **************************************************************************

                    xk=(  -0.13000,   0.00000,   0.13000  )

     Band symmetry, C_2v (mm2)  point group:

     e(  1 -  1) =     -5.67496  eV     1   --> A_1  D_1  S_1  
     e(  2 -  2) =      5.05168  eV     1   --> B_1  D_3  S_3  
     e(  3 -  3) =      5.59583  eV     1   --> A_1  D_1  S_1  
     e(  4 -  4) =      6.10262  eV     1   --> A_2  D_2  S_2  
     e(  5 -  5) =      8.84804  eV     1   --> B_2  D_4  S_4  
     e(  6 -  6) =      8.95270  eV     1   --> A_1  D_1  S_1  
     e(  7 -  7) =      8.99893  eV     1   --> B_1  D_3  S_3  
     e(  8 -  8) =     10.47817  eV     1   --> B_1  D_3  S_3  
     e(  9 -  9) =     13.21301  eV     1   --> A_2  D_2  S_2  
     e( 10 - 10) =     13.72505  eV     1   --> B_1  D_3  S_3  
     e( 11 - 11) =     14.50205  eV     1   --> A_1  D_1  S_1  
     e( 12 - 12) =     17.12079  eV     1   --> B_1  D_3  S_3  

 **************************************************************************

 **************************************************************************

                    xk=(  -0.12000,   0.00000,   0.12000  )

     Band symmetry, C_2v (mm2)  point group:

     e(  1 -  1) =     -5.69682  eV     1   --> A_1  D_1  S_1  
     e(  2 -  2) =      5.17927  eV     1   --> B_1  D_3  S_3  
     e(  3 -  3) =      5.67183  eV     1   --> A_1  D_1  S_1  
     e(  4 -  4) =      6.11332  eV     1   --> A_2  D_2  S_2  
     e(  5 -  5) =      8.82557  eV     1   --> B_2  D_4  S_4  
     e(  6 -  6) =      8.91884  eV     1   --> A_1  D_1  S_1  
     e(  7 -  7) =      8.97915  eV     1   --> B_1  D_3  S_3  
     e(  8 -  8) =     10.35016  eV     1   --> B_1  D_3  S_3  
     e(  9 -  9) =     13.28721  eV     1   --> A_2  D_2  S_2  
     e( 10 - 10) =     13.73955  eV     1   --> B_1  D_3  S_3  
     e( 11 - 11) =     14.41646  eV     1   --> A_1  D_1  S_1  
     e( 12 - 12) =     17.13253  eV     1   --> B_1  D_3  S_3  

 **************************************************************************

 **************************************************************************

                    xk=(  -0.11000,   0.00000,   0.11000  )

     Band symmetry, C_2v (mm2)  point group:

     e(  1 -  1) =     -5.71695  eV     1   --> A_1  D_1  S_1  
     e(  2 -  2) =      5.30436  eV     1   --> B_1  D_3  S_3  
     e(  3 -  3) =      5.74410  eV     1   --> A_1  D_1  S_1  
     e(  4 -  4) =      6.12300  eV     1   --> A_2  D_2  S_2  
     e(  5 -  5) =      8.80490  eV     1   --> B_2  D_4  S_4  
     e(  6 -  6) =      8.88674  eV     1   --> A_1  D_1  S_1  
     e(  7 -  7) =      8.95808  eV     1   --> B_1  D_3  S_3  
     e(  8 -  8) =     10.22527  eV     1   --> B_1  D_3  S_3  
     e(  9 -  9) =     13.36093  eV     1   --> A_2  D_2  S_2  
     e( 10 - 10) =     13.75563  eV     1   --> B_1  D_3  S_3  
     e( 11 - 11) =     14.33572  eV     1   --> A_1  D_1  S_1  
     e( 12 - 12) =     17.14617  eV     1   --> B_1  D_3  S_3  

 **************************************************************************

 **************************************************************************

                    xk=(  -0.10000,   0.00000,   0.10000  )

     Band symmetry, C_2v (mm2)  point group:

     e(  1 -  1) =     -5.73534  eV     1   --> A_1  D_1  S_1  
     e(  2 -  2) =      5.42620  eV     1   --> B_1  D_3  S_3  
     e(  3 -  3) =      5.81222  eV     1   --> A_1  D_1  S_1  
     e(  4 -  4) =      6.13169  eV     1   --> A_2  D_2  S_2  
     e(  5 -  5) =      8.78602  eV     1   --> B_2  D_4  S_4  
     e(  6 -  6) =      8.85651  eV     1   --> A_1  D_1  S_1  
     e(  7 -  7) =      8.93547  eV     1   --> B_1  D_3  S_3  
     e(  8 -  8) =     10.10521  eV     1   --> B_1  D_3  S_3  
     e(  9 -  9) =     13.43345  eV     1   --> A_2  D_2  S_2  
     e( 10 - 10) =     13.77244  eV     1   --> B_1  D_3  S_3  
     e( 11 - 11) =     14.26027  eV     1   --> A_1  D_1  S_1  
     e( 12 - 12) =     17.16129  eV     1   --> B_1  D_3  S_3  

 **************************************************************************

 **************************************************************************

                    xk=(  -0.09000,   0.00000,   0.09000  )

     Band symmetry, C_2v (mm2)  point group:

     e(  1 -  1) =     -5.75200  eV     1   --> A_1  D_1  S_1  
     e(  2 -  2) =      5.54390  eV     1   --> B_1  D_3  S_3  
     e(  3 -  3) =      5.87576  eV     1   --> A_1  D_1  S_1  
     e(  4 -  4) =      6.13942  eV     1   --> A_2  D_2  S_2  
     e(  5 -  5) =      8.76894  eV     1   --> B_2  D_4  S_4  
     e(  6 -  6) =      8.82832  eV     1   --> A_1  D_1  S_1  
     e(  7 -  7) =      8.91104  eV     1   --> B_1  D_3  S_3  
     e(  8 -  8) =      9.99173  eV     1   --> B_1  D_3  S_3  
     e(  9 -  9) =     13.50395  eV     1   --> A_2  D_2  S_2  
     e( 10 - 10) =     13.78930  eV     1   --> B_1  D_3  S_3  
     e( 11 - 11) =     14.19055  eV     1   --> A_1  D_1  S_1  
     e( 12 - 12) =     17.17744  eV     1   --> B_1  D_3  S_3  

 **************************************************************************

 **************************************************************************

                    xk=(  -0.08000,   0.00000,   0.08000  )

     Band symmetry, C_2v (mm2)  point group:

     e(  1 -  1) =     -5.76691  eV     1   --> A_1  D_1  S_1  
     e(  2 -  2) =      5.65635  eV     1   --> B_1  D_3  S_3  
     e(  3 -  3) =      5.93428  eV     1   --> A_1  D_1  S_1  
     e(  4 -  4) =      6.14624  eV     1   --> A_2  D_2  S_2  
     e(  5 -  5) =      8.75365  eV     1   --> B_2  D_4  S_4  
     e(  6 -  6) =      8.80231  eV     1   --> A_1  D_1  S_1  
     e(  7 -  7) =      8.88458  eV     1   --> B_1  D_3  S_3  
     e(  8 -  8) =      9.88662  eV     1   --> B_1  D_3  S_3  
     e(  9 -  9) =     13.57153  eV     1   --> A_2  D_2  S_2  
     e( 10 - 10) =     13.80564  eV     1   --> B_1  D_3  S_3  
     e( 11 - 11) =     14.12696  eV     1   --> A_1  D_1  S_1  
     e( 12 - 12) =     17.19410  eV     1   --> B_1  D_3  S_3  

 **************************************************************************

 **************************************************************************

                    xk=(  -0.07000,   0.00000,   0.07000  )

     Band symmetry, C_2v (mm2)  point group:

     e(  1 -  1) =     -5.78008  eV     1   --> A_1  D_1  S_1  
     e(  2 -  2) =      5.76227  eV     1   --> B_1  D_3  S_3  
     e(  3 -  3) =      5.98731  eV     1   --> A_1  D_1  S_1  
     e(  4 -  4) =      6.15217  eV     1   --> A_2  D_2  S_2  
     e(  5 -  5) =      8.74016  eV     1   --> B_2  D_4  S_4  
     e(  6 -  6) =      8.77869  eV     1   --> A_1  D_1  S_1  
     e(  7 -  7) =      8.85607  eV     1   --> B_1  D_3  S_3  
     e(  8 -  8) =      9.79156  eV     1   --> B_1  D_3  S_3  
     e(  9 -  9) =     13.63516  eV     1   --> A_2  D_2  S_2  
     e( 10 - 10) =     13.82096  eV     1   --> B_1  D_3  S_3  
     e( 11 - 11) =     14.06989  eV     1   --> A_1  D_1  S_1  
     e( 12 - 12) =     17.21071  eV     1   --> B_1  D_3  S_3  

 **************************************************************************

 **************************************************************************

                    xk=(  -0.06000,   0.00000,   0.06000  )

     Band symmetry, C_2v (mm2)  point group:

     e(  1 -  1) =     -5.79150  eV     1   --> A_1  D_1  S_1  
     e(  2 -  2) =      5.86011  eV     1   --> B_1  D_3  S_3  
     e(  3 -  3) =      6.03441  eV     1   --> A_1  D_1  S_1  
     e(  4 -  4) =      6.15725  eV     1   --> A_2  D_2  S_2  
     e(  5 -  5) =      8.72847  eV     1   --> B_2  D_4  S_4  
     e(  6 -  6) =      8.75764  eV     1   --> A_1  D_1  S_1  
     e(  7 -  7) =      8.82585  eV     1   --> B_1  D_3  S_3  
     e(  8 -  8) =      9.70808  eV     1   --> B_1  D_3  S_3  
     e(  9 -  9) =     13.69375  eV     1   --> A_2  D_2  S_2  
     e( 10 - 10) =     13.83491  eV     1   --> B_1  D_3  S_3  
     e( 11 - 11) =     14.01968  eV     1   --> A_1  D_1  S_1  
     e( 12 - 12) =     17.22670  eV     1   --> B_1  D_3  S_3  

 **************************************************************************

 **************************************************************************

                    xk=(  -0.05000,   0.00000,   0.05000  )

     Band symmetry, C_2v (mm2)  point group:

     e(  1 -  1) =     -5.80116  eV     1   --> A_1  D_1  S_1  
     e(  2 -  2) =      5.94810  eV     1   --> B_1  D_3  S_3  
     e(  3 -  3) =      6.07514  eV     1   --> A_1  D_1  S_1  
     e(  4 -  4) =      6.16150  eV     1   --> A_2  D_2  S_2  
     e(  5 -  5) =      8.71857  eV     1   --> B_2  D_4  S_4  
     e(  6 -  6) =      8.73938  eV     1   --> A_1  D_1  S_1  
     e(  7 -  7) =      8.79484  eV     1   --> B_1  D_3  S_3  
     e(  8 -  8) =      9.63730  eV     1   --> B_1  D_3  S_3  
     e(  9 -  9) =     13.74614  eV     1   --> A_2  D_2  S_2  
     e( 10 - 10) =     13.84717  eV     1   --> B_1  D_3  S_3  
     e( 11 - 11) =     13.97663  eV     1   --> A_1  D_1  S_1  
     e( 12 - 12) =     17.24149  eV     1   --> B_1  D_3  S_3  

 **************************************************************************

 **************************************************************************

                    xk=(  -0.04000,   0.00000,   0.04000  )

     Band symmetry, C_2v (mm2)  point group:

     e(  1 -  1) =     -5.80907  eV     1   --> A_1  D_1  S_1  
     e(  2 -  2) =      6.02426  eV     1   --> B_1  D_3  S_3  
     e(  3 -  3) =      6.10911  eV     1   --> A_1  D_1  S_1  
     e(  4 -  4) =      6.16494  eV     1   --> A_2  D_2  S_2  
     e(  5 -  5) =      8.71048  eV     1   --> B_2  D_4  S_4  
     e(  6 -  6) =      8.72409  eV     1   --> A_1  D_1  S_1  
     e(  7 -  7) =      8.76459  eV     1   --> B_1  D_3  S_3  
     e(  8 -  8) =      9.57985  eV     1   --> B_1  D_3  S_3  
     e(  9 -  9) =     13.79113  eV     1   --> A_2  D_2  S_2  
     e( 10 - 10) =     13.85751  eV     1   --> B_1  D_3  S_3  
     e( 11 - 11) =     13.94103  eV     1   --> A_1  D_1  S_1  
     e( 12 - 12) =     17.25450  eV     1   --> B_1  D_3  S_3  

 **************************************************************************

 **************************************************************************

                    xk=(  -0.03000,   0.00000,   0.03000  )

     Band symmetry, C_2v (mm2)  point group:

     e(  1 -  1) =     -5.81523  eV     1   --> A_1  D_1  S_1  
     e(  2 -  2) =      6.08650  eV     1   --> B_1  D_3  S_3  
     e(  3 -  3) =      6.13594  eV     1   --> A_1  D_1  S_1  
     e(  4 -  4) =      6.16760  eV     1   --> A_2  D_2  S_2  
     e(  5 -  5) =      8.70418  eV     1   --> B_2  D_4  S_4  
     e(  6 -  6) =      8.71197  eV     1   --> A_1  D_1  S_1  
     e(  7 -  7) =      8.73726  eV     1   --> B_1  D_3  S_3  
     e(  8 -  8) =      9.53581  eV     1   --> B_1  D_3  S_3  
     e(  9 -  9) =     13.82758  eV     1   --> A_2  D_2  S_2  
     e( 10 - 10) =     13.86572  eV     1   --> B_1  D_3  S_3  
     e( 11 - 11) =     13.91310  eV     1   --> A_1  D_1  S_1  
     e( 12 - 12) =     17.26524  eV     1   --> B_1  D_3  S_3  

 **************************************************************************

 **************************************************************************

                    xk=(  -0.02000,   0.00000,   0.02000  )

     Band symmetry, C_2v (mm2)  point group:

     e(  1 -  1) =     -5.81963  eV     1   --> A_1  D_1  S_1  
     e(  2 -  2) =      6.13277  eV     1   --> B_1  D_3  S_3  
     e(  3 -  3) =      6.15534  eV     1   --> A_1  D_1  S_1  
     e(  4 -  4) =      6.16949  eV     1   --> A_2  D_2  S_2  
     e(  5 -  5) =      8.69969  eV     1   --> B_2  D_4  S_4  
     e(  6 -  6) =      8.70319  eV     1   --> A_1  D_1  S_1  
     e(  7 -  7) =      8.71531  eV     1   --> B_1  D_3  S_3  
     e(  8 -  8) =      9.50487  eV     1   --> B_1  D_3  S_3  
     e(  9 -  9) =     13.85446  eV     1   --> A_2  D_2  S_2  
     e( 10 - 10) =     13.87168  eV     1   --> B_1  D_3  S_3  
     e( 11 - 11) =     13.89302  eV     1   --> A_1  D_1  S_1  
     e( 12 - 12) =     17.27325  eV     1   --> B_1  D_3  S_3  

 **************************************************************************

 **************************************************************************

                    xk=(  -0.01000,   0.00000,   0.01000  )

     Band symmetry, C_2v (mm2)  point group:

     e(  1 -  1) =     -5.82227  eV     1   --> A_1  D_1  S_1  
     e(  2 -  2) =      6.16134  eV     1   --> B_1  D_3  S_3  
     e(  3 -  3) =      6.16707  eV     1   --> A_1  D_1  S_1  
     e(  4 -  4) =      6.17062  eV     1   --> A_2  D_2  S_2  
     e(  5 -  5) =      8.69699  eV     1   --> B_2  D_4  S_4  
     e(  6 -  6) =      8.69787  eV     1   --> A_1  D_1  S_1  
     e(  7 -  7) =      8.70104  eV     1   --> B_1  D_3  S_3  
     e(  8 -  8) =      9.48658  eV     1   --> B_1  D_3  S_3  
     e(  9 -  9) =     13.87095  eV     1   --> A_2  D_2  S_2  
     e( 10 - 10) =     13.87530  eV     1   --> B_1  D_3  S_3  
     e( 11 - 11) =     13.88091  eV     1   --> A_1  D_1  S_1  
     e( 12 - 12) =     17.27820  eV     1   --> B_1  D_3  S_3  

 **************************************************************************

 **************************************************************************

                    xk=(   0.00000,   0.00000,   0.00000  )

     point group O_h (m-3m) 
     there are 10 classes
     the character table:

       E     8C3   3C2   6C4   6C2'  i     8S6   3s_h  6S4   6s_d 
A_1g   1.00  1.00  1.00  1.00  1.00  1.00  1.00  1.00  1.00  1.00
A_2g   1.00  1.00  1.00 -1.00 -1.00  1.00  1.00  1.00 -1.00 -1.00
E_g    2.00 -1.00  2.00  0.00  0.00  2.00 -1.00  2.00  0.00  0.00
T_1g   3.00  0.00 -1.00  1.00 -1.00  3.00  0.00 -1.00  1.00 -1.00
T_2g   3.00  0.00 -1.00 -1.00  1.00  3.00  0.00 -1.00 -1.00  1.00
A_1u   1.00  1.00  1.00  1.00  1.00 -1.00 -1.00 -1.00 -1.00 -1.00
A_2u   1.00  1.00  1.00 -1.00 -1.00 -1.00 -1.00 -1.00  1.00  1.00
E_u    2.00 -1.00  2.00  0.00  0.00 -2.00  1.00 -2.00  0.00  0.00
T_1u   3.00  0.00 -1.00  1.00 -1.00 -3.00  0.00  1.00 -1.00  1.00
T_2u   3.00  0.00 -1.00 -1.00  1.00 -3.00  0.00  1.00  1.00 -1.00

     the symmetry operations in each class and the name of the first element:

     E        1
                                                                 
     8C3     17   19   20   18   24   21   22   23
                                                                 
     3C2      2    4    3
                                                                 
     6C4      7    8   15   16   12   11
                                                                 
     6C2'     5    6   14   13   10    9
                                                                 
     i       25
                                                                 
     8S6     41   43   44   42   48   45   46   47
                                                                 
     3s_h    26   28   27
                                                                 
     6S4     31   32   39   40   36   35
                                                                 
     6s_d    29   30   38   37   34   33
                                                                 

     Band symmetry, O_h (m-3m)  point group:

     e(  1 -  1) =     -5.82314  eV     1   --> A_1g G_1   G_1+
     e(  2 -  4) =      6.17100  eV     3   --> T_2g G_25' G_5+
     e(  5 -  7) =      8.69609  eV     3   --> T_1u G_15  G_4-
     e(  8 -  8) =      9.48054  eV     1   --> A_2u G_2'  G_2-
     e(  9 - 10) =     13.87650  eV     2   --> E_u  G_12' G_3-
     e( 11 - 11) =     13.87687  eV     1   --> A_1g G_1   G_1+
     e( 12 - 12) =     17.27988  eV     1   -->   ?

 **************************************************************************

     BANDS        :      6.68s CPU      6.76s WALL


   This run was terminated on:  23:12: 6  25Dec2024            

=------------------------------------------------------------------------------=
   JOB DONE.
=------------------------------------------------------------------------------=
