
     Program PWSCF v.7.3.1 starts on 19Dec2024 at 20:31:10 

     This program is part of the open-source Quantum ESPRESSO suite
     for quantum simulation of materials; please cite
         "P. Giannozzi et al., J. Phys.:Condens. Matter 21 395502 (2009);
         "P. Giannozzi et al., J. Phys.:Condens. Matter 29 465901 (2017);
         "P. Giannozzi et al., J. Chem. Phys. 152 154105 (2020);
          URL http://www.quantum-espresso.org", 
     in publications or presentations arising from this work. More details at
     http://www.quantum-espresso.org/quote

     Serial version
     113733 MiB available memory on the printing compute node when the environment starts

     Waiting for input...
     Reading input from standard input

     Current dimensions of program PWSCF are:
     Max number of different atomic species (ntypx) = 10
     Max number of k-points (npk) =  40000
     Max angular momentum in pseudopotentials (lmaxx) =  4


     G-vector sticks info
     --------------------
     sticks:   dense  smooth     PW     G-vecs:    dense   smooth      PW
     Sum         583     583    187                 9257     9257    1639

     Using Slab Decomposition



     bravais-lattice index     =            2
     lattice parameter (alat)  =      10.2600  a.u.
     unit-cell volume          =     270.0114 (a.u.)^3
     number of atoms/cell      =            2
     number of atomic types    =            1
     number of electrons       =         8.00
     number of Kohn-Sham states=            4
     kinetic-energy cutoff     =      40.0000  Ry
     charge density cutoff     =     160.0000  Ry
     scf convergence threshold =      1.0E-09
     mixing beta               =       0.4000
     number of iterations used =            8  plain     mixing
     energy convergence thresh.=      1.0E-04
     force convergence thresh. =      1.0E-04
     Exchange-correlation= PBESOL
                           (   1   4  10   8   0   0   0)
     nstep                     =           50


     celldm(1)=  10.260000  celldm(2)=   0.000000  celldm(3)=   0.000000
     celldm(4)=   0.000000  celldm(5)=   0.000000  celldm(6)=   0.000000

     crystal axes: (cart. coord. in units of alat)
               a(1) = (  -0.500000   0.000000   0.500000 )  
               a(2) = (   0.000000   0.500000   0.500000 )  
               a(3) = (  -0.500000   0.500000   0.000000 )  

     reciprocal axes: (cart. coord. in units 2 pi/alat)
               b(1) = ( -1.000000 -1.000000  1.000000 )  
               b(2) = (  1.000000  1.000000  1.000000 )  
               b(3) = ( -1.000000  1.000000 -1.000000 )  


     PseudoPot. # 1 for Si read from file:
     ./Si_pbesol.upf
     MD5 check sum: fe77d7a5829557c21112a27752452c0f
     Pseudo is Ultrasoft + core correction, Zval =  4.0
     Generated using "atomic" code by A. Dal Corso  v.5.0.2 svn rev. 9415
     Using radial grid of 1141 points,  4 beta functions with: 
                l(1) =   0
                l(2) =   0
                l(3) =   1
                l(4) =   1
     Q(r) pseudized with 0 coefficients 


     atomic species   valence    mass     pseudopotential
     Si                4.00    28.08550     Si( 1.00)

      6 Sym. Ops. (no inversion) found


                                    s                        frac. trans.

      isym =  1     identity                                     

 cryst.   s( 1) = (     1          0          0      )
                  (     0          1          0      )
                  (     0          0          1      )

 cart.    s( 1) = (  1.0000000  0.0000000  0.0000000 )
                  (  0.0000000  1.0000000  0.0000000 )
                  (  0.0000000  0.0000000  1.0000000 )


      isym =  2     120 deg rotation - cart. axis [-1,-1,-1]     

 cryst.   s( 2) = (    -1          0          1      )
                  (    -1          1          0      )
                  (    -1          0          0      )

 cart.    s( 2) = (  0.0000000  1.0000000  0.0000000 )
                  (  0.0000000  0.0000000  1.0000000 )
                  (  1.0000000  0.0000000  0.0000000 )


      isym =  3     120 deg rotation - cart. axis [1,1,1]        

 cryst.   s( 3) = (     0          0         -1      )
                  (     0          1         -1      )
                  (     1          0         -1      )

 cart.    s( 3) = (  0.0000000  0.0000000  1.0000000 )
                  (  1.0000000  0.0000000  0.0000000 )
                  (  0.0000000  1.0000000  0.0000000 )


      isym =  4     inv. 180 deg rotation - cart. axis [1,-1,0]  

 cryst.   s( 4) = (     1          0         -1      )
                  (     0          1         -1      )
                  (     0          0         -1      )

 cart.    s( 4) = (  0.0000000  1.0000000  0.0000000 )
                  (  1.0000000  0.0000000  0.0000000 )
                  (  0.0000000  0.0000000  1.0000000 )


      isym =  5     inv. 180 deg rotation - cart. axis [-1,0,1]  

 cryst.   s( 5) = (    -1          0          0      )
                  (    -1          1          0      )
                  (    -1          0          1      )

 cart.    s( 5) = (  0.0000000  0.0000000  1.0000000 )
                  (  0.0000000  1.0000000  0.0000000 )
                  (  1.0000000  0.0000000  0.0000000 )


      isym =  6     inv. 180 deg rotation - cart. axis [0,1,-1]  

 cryst.   s( 6) = (     0          0          1      )
                  (     0          1          0      )
                  (     1          0          0      )

 cart.    s( 6) = (  1.0000000  0.0000000  0.0000000 )
                  (  0.0000000  0.0000000  1.0000000 )
                  (  0.0000000  1.0000000  0.0000000 )


     point group C_3v (3m)  
     there are  3 classes
     the character table:

       E     2C3   3s_v 
A_1    1.00  1.00  1.00
A_2    1.00  1.00 -1.00
E      2.00 -1.00  0.00

     the symmetry operations in each class and the name of the first element:

     E        1
          identity                                               
     2C3      2    3
          120 deg rotation - cart. axis [-1,-1,-1]               
     3s_v     4    5    6
          inv. 180 deg rotation - cart. axis [1,-1,0]            

   Cartesian axes

     site n.     atom                  positions (alat units)
         1        Si     tau(   1) = (   0.0000000   0.0000000   0.0000000  )
         2        Si     tau(   2) = (   0.2506742   0.2506742   0.2506742  )

   Crystallographic axes

     site n.     atom                  positions (cryst. coord.)
         1        Si     tau(   1) = (  0.0000000  0.0000000  0.0000000  )
         2        Si     tau(   2) = ( -0.2506742  0.7520226 -0.2506742  )

     number of k points=   116
                       cart. coord. in units 2pi/alat
        k(    1) = (   0.0000000   0.0000000   0.0000000), wk =   0.0020000
        k(    2) = (  -0.1000000   0.1000000  -0.1000000), wk =   0.0120000
        k(    3) = (  -0.2000000   0.2000000  -0.2000000), wk =   0.0120000
        k(    4) = (  -0.3000000   0.3000000  -0.3000000), wk =   0.0120000
        k(    5) = (  -0.4000000   0.4000000  -0.4000000), wk =   0.0120000
        k(    6) = (   0.5000000  -0.5000000   0.5000000), wk =   0.0060000
        k(    7) = (   0.0000000   0.2000000   0.0000000), wk =   0.0120000
        k(    8) = (  -0.1000000   0.3000000  -0.1000000), wk =   0.0120000
        k(    9) = (  -0.2000000   0.4000000  -0.2000000), wk =   0.0120000
        k(   10) = (  -0.3000000   0.5000000  -0.3000000), wk =   0.0120000
        k(   11) = (   0.6000000  -0.4000000   0.6000000), wk =   0.0120000
        k(   12) = (   0.5000000  -0.3000000   0.5000000), wk =   0.0120000
        k(   13) = (   0.4000000  -0.2000000   0.4000000), wk =   0.0120000
        k(   14) = (   0.3000000  -0.1000000   0.3000000), wk =   0.0120000
        k(   15) = (   0.2000000   0.0000000   0.2000000), wk =   0.0120000
        k(   16) = (   0.0000000   0.4000000   0.0000000), wk =   0.0120000
        k(   17) = (  -0.1000000   0.5000000  -0.1000000), wk =   0.0120000
        k(   18) = (  -0.2000000   0.6000000  -0.2000000), wk =   0.0120000
        k(   19) = (   0.7000000  -0.3000000   0.7000000), wk =   0.0120000
        k(   20) = (   0.6000000  -0.2000000   0.6000000), wk =   0.0120000
        k(   21) = (   0.5000000  -0.1000000   0.5000000), wk =   0.0120000
        k(   22) = (   0.4000000   0.0000000   0.4000000), wk =   0.0120000
        k(   23) = (   0.0000000   0.6000000   0.0000000), wk =   0.0120000
        k(   24) = (  -0.1000000   0.7000000  -0.1000000), wk =   0.0120000
        k(   25) = (   0.8000000  -0.2000000   0.8000000), wk =   0.0120000
        k(   26) = (   0.7000000  -0.1000000   0.7000000), wk =   0.0120000
        k(   27) = (   0.6000000  -0.0000000   0.6000000), wk =   0.0120000
        k(   28) = (   0.0000000   0.8000000   0.0000000), wk =   0.0120000
        k(   29) = (   0.9000000  -0.1000000   0.9000000), wk =   0.0120000
        k(   30) = (   0.8000000   0.0000000   0.8000000), wk =   0.0120000
        k(   31) = (   0.0000000  -1.0000000   0.0000000), wk =   0.0060000
        k(   32) = (  -0.2000000   0.4000000   0.0000000), wk =   0.0240000
        k(   33) = (  -0.3000000   0.5000000  -0.1000000), wk =   0.0240000
        k(   34) = (   0.6000000  -0.4000000   0.8000000), wk =   0.0240000
        k(   35) = (   0.5000000  -0.3000000   0.7000000), wk =   0.0240000
        k(   36) = (  -0.2000000   0.6000000   0.0000000), wk =   0.0240000
        k(   37) = (   0.7000000  -0.3000000   0.9000000), wk =   0.0240000
        k(   38) = (   0.6000000  -0.2000000   0.8000000), wk =   0.0240000
        k(   39) = (   0.5000000  -0.1000000   0.7000000), wk =   0.0240000
        k(   40) = (   0.4000000   0.0000000   0.6000000), wk =   0.0240000
        k(   41) = (   0.8000000  -0.2000000   1.0000000), wk =   0.0240000
        k(   42) = (   0.7000000  -0.1000000   0.9000000), wk =   0.0240000
        k(   43) = (   0.6000000   0.0000000   0.8000000), wk =   0.0240000
        k(   44) = (  -0.2000000  -1.0000000   0.0000000), wk =   0.0240000
        k(   45) = (   0.6000000  -0.2000000   1.0000000), wk =   0.0240000
        k(   46) = (   0.5000000  -0.1000000   0.9000000), wk =   0.0240000
        k(   47) = (  -0.4000000  -1.0000000   0.0000000), wk =   0.0240000
        k(   48) = (  -0.1000000  -0.1000000  -0.1000000), wk =   0.0040000
        k(   49) = (  -0.2000000  -0.2000000  -0.2000000), wk =   0.0040000
        k(   50) = (  -0.3000000  -0.3000000  -0.3000000), wk =   0.0040000
        k(   51) = (  -0.4000000  -0.4000000  -0.4000000), wk =   0.0040000
        k(   52) = (   0.5000000   0.5000000   0.5000000), wk =   0.0020000
        k(   53) = (   0.3000000   0.1000000  -0.1000000), wk =   0.0240000
        k(   54) = (  -0.3000000  -0.1000000  -0.1000000), wk =   0.0120000
        k(   55) = (   0.4000000   0.2000000  -0.2000000), wk =   0.0240000
        k(   56) = (  -0.4000000  -0.2000000  -0.2000000), wk =   0.0120000
        k(   57) = (   0.5000000   0.3000000  -0.3000000), wk =   0.0240000
        k(   58) = (  -0.5000000  -0.3000000  -0.3000000), wk =   0.0120000
        k(   59) = (  -0.4000000  -0.6000000   0.6000000), wk =   0.0240000
        k(   60) = (   0.4000000   0.6000000   0.6000000), wk =   0.0120000
        k(   61) = (  -0.3000000  -0.5000000   0.5000000), wk =   0.0240000
        k(   62) = (   0.3000000   0.5000000   0.5000000), wk =   0.0120000
        k(   63) = (  -0.2000000  -0.4000000   0.4000000), wk =   0.0240000
        k(   64) = (   0.2000000   0.4000000   0.4000000), wk =   0.0120000
        k(   65) = (  -0.1000000  -0.3000000   0.3000000), wk =   0.0240000
        k(   66) = (   0.1000000   0.3000000   0.3000000), wk =   0.0120000
        k(   67) = (   0.0000000  -0.2000000   0.2000000), wk =   0.0120000
        k(   68) = (   0.5000000   0.1000000  -0.1000000), wk =   0.0240000
        k(   69) = (  -0.5000000  -0.1000000  -0.1000000), wk =   0.0120000
        k(   70) = (   0.6000000   0.2000000  -0.2000000), wk =   0.0240000
        k(   71) = (  -0.6000000  -0.2000000  -0.2000000), wk =   0.0120000
        k(   72) = (  -0.3000000  -0.7000000   0.7000000), wk =   0.0240000
        k(   73) = (   0.3000000   0.7000000   0.7000000), wk =   0.0120000
        k(   74) = (  -0.2000000  -0.6000000   0.6000000), wk =   0.0240000
        k(   75) = (   0.2000000   0.6000000   0.6000000), wk =   0.0120000
        k(   76) = (  -0.1000000  -0.5000000   0.5000000), wk =   0.0240000
        k(   77) = (   0.1000000   0.5000000   0.5000000), wk =   0.0120000
        k(   78) = (   0.0000000  -0.4000000   0.4000000), wk =   0.0120000
        k(   79) = (   0.7000000   0.1000000  -0.1000000), wk =   0.0240000
        k(   80) = (  -0.7000000  -0.1000000  -0.1000000), wk =   0.0120000
        k(   81) = (  -0.2000000  -0.8000000   0.8000000), wk =   0.0240000
        k(   82) = (   0.2000000   0.8000000   0.8000000), wk =   0.0120000
        k(   83) = (  -0.1000000  -0.7000000   0.7000000), wk =   0.0240000
        k(   84) = (   0.1000000   0.7000000   0.7000000), wk =   0.0120000
        k(   85) = (   0.0000000  -0.6000000   0.6000000), wk =   0.0120000
        k(   86) = (  -0.1000000  -0.9000000   0.9000000), wk =   0.0240000
        k(   87) = (   0.1000000   0.9000000   0.9000000), wk =   0.0120000
        k(   88) = (   0.0000000  -0.8000000   0.8000000), wk =   0.0120000
        k(   89) = (   0.4000000   0.2000000   0.0000000), wk =   0.0240000
        k(   90) = (   0.5000000   0.3000000  -0.1000000), wk =   0.0240000
        k(   91) = (  -0.5000000  -0.3000000  -0.1000000), wk =   0.0240000
        k(   92) = (   0.1000000   0.5000000  -0.3000000), wk =   0.0240000
        k(   93) = (  -0.4000000  -0.6000000   0.8000000), wk =   0.0240000
        k(   94) = (   0.4000000   0.6000000   0.8000000), wk =   0.0240000
        k(   95) = (  -0.8000000  -0.4000000   0.6000000), wk =   0.0240000
        k(   96) = (   0.3000000   0.5000000   0.7000000), wk =   0.0120000
        k(   97) = (  -0.7000000  -0.3000000   0.5000000), wk =   0.0120000
        k(   98) = (   0.6000000   0.2000000   0.0000000), wk =   0.0240000
        k(   99) = (  -0.3000000  -0.7000000   0.9000000), wk =   0.0240000
        k(  100) = (   0.3000000   0.7000000   0.9000000), wk =   0.0240000
        k(  101) = (  -0.9000000  -0.3000000   0.7000000), wk =   0.0240000
        k(  102) = (  -0.2000000  -0.6000000   0.8000000), wk =   0.0240000
        k(  103) = (   0.2000000   0.6000000   0.8000000), wk =   0.0240000
        k(  104) = (  -0.8000000  -0.2000000   0.6000000), wk =   0.0240000
        k(  105) = (  -0.1000000  -0.5000000   0.7000000), wk =   0.0240000
        k(  106) = (   0.1000000   0.5000000   0.7000000), wk =   0.0240000
        k(  107) = (  -0.7000000  -0.1000000   0.5000000), wk =   0.0240000
        k(  108) = (   0.0000000  -0.4000000   0.6000000), wk =   0.0240000
        k(  109) = (  -0.2000000  -0.8000000   1.0000000), wk =   0.0240000
        k(  110) = (  -0.1000000  -0.7000000   0.9000000), wk =   0.0240000
        k(  111) = (   0.1000000   0.7000000   0.9000000), wk =   0.0240000
        k(  112) = (  -0.9000000  -0.1000000   0.7000000), wk =   0.0240000
        k(  113) = (   0.0000000  -0.6000000   0.8000000), wk =   0.0240000
        k(  114) = (  -0.2000000  -0.6000000   1.0000000), wk =   0.0240000
        k(  115) = (   0.1000000   0.5000000   0.9000000), wk =   0.0120000
        k(  116) = (  -0.9000000  -0.1000000   0.5000000), wk =   0.0120000

                       cryst. coord.
        k(    1) = (   0.0000000   0.0000000   0.0000000), wk =   0.0020000
        k(    2) = (   0.0000000   0.0000000   0.1000000), wk =   0.0120000
        k(    3) = (   0.0000000   0.0000000   0.2000000), wk =   0.0120000
        k(    4) = (   0.0000000   0.0000000   0.3000000), wk =   0.0120000
        k(    5) = (   0.0000000   0.0000000   0.4000000), wk =   0.0120000
        k(    6) = (   0.0000000   0.0000000  -0.5000000), wk =   0.0060000
        k(    7) = (   0.0000000   0.1000000   0.1000000), wk =   0.0120000
        k(    8) = (   0.0000000   0.1000000   0.2000000), wk =   0.0120000
        k(    9) = (   0.0000000   0.1000000   0.3000000), wk =   0.0120000
        k(   10) = (   0.0000000   0.1000000   0.4000000), wk =   0.0120000
        k(   11) = (   0.0000000   0.1000000  -0.5000000), wk =   0.0120000
        k(   12) = (   0.0000000   0.1000000  -0.4000000), wk =   0.0120000
        k(   13) = (   0.0000000   0.1000000  -0.3000000), wk =   0.0120000
        k(   14) = (   0.0000000   0.1000000  -0.2000000), wk =   0.0120000
        k(   15) = (   0.0000000   0.1000000  -0.1000000), wk =   0.0120000
        k(   16) = (   0.0000000   0.2000000   0.2000000), wk =   0.0120000
        k(   17) = (   0.0000000   0.2000000   0.3000000), wk =   0.0120000
        k(   18) = (   0.0000000   0.2000000   0.4000000), wk =   0.0120000
        k(   19) = (   0.0000000   0.2000000  -0.5000000), wk =   0.0120000
        k(   20) = (   0.0000000   0.2000000  -0.4000000), wk =   0.0120000
        k(   21) = (   0.0000000   0.2000000  -0.3000000), wk =   0.0120000
        k(   22) = (   0.0000000   0.2000000  -0.2000000), wk =   0.0120000
        k(   23) = (   0.0000000   0.3000000   0.3000000), wk =   0.0120000
        k(   24) = (   0.0000000   0.3000000   0.4000000), wk =   0.0120000
        k(   25) = (   0.0000000   0.3000000  -0.5000000), wk =   0.0120000
        k(   26) = (   0.0000000   0.3000000  -0.4000000), wk =   0.0120000
        k(   27) = (   0.0000000   0.3000000  -0.3000000), wk =   0.0120000
        k(   28) = (   0.0000000   0.4000000   0.4000000), wk =   0.0120000
        k(   29) = (   0.0000000   0.4000000  -0.5000000), wk =   0.0120000
        k(   30) = (   0.0000000   0.4000000  -0.4000000), wk =   0.0120000
        k(   31) = (   0.0000000  -0.5000000  -0.5000000), wk =   0.0060000
        k(   32) = (   0.1000000   0.2000000   0.3000000), wk =   0.0240000
        k(   33) = (   0.1000000   0.2000000   0.4000000), wk =   0.0240000
        k(   34) = (   0.1000000   0.2000000  -0.5000000), wk =   0.0240000
        k(   35) = (   0.1000000   0.2000000  -0.4000000), wk =   0.0240000
        k(   36) = (   0.1000000   0.3000000   0.4000000), wk =   0.0240000
        k(   37) = (   0.1000000   0.3000000  -0.5000000), wk =   0.0240000
        k(   38) = (   0.1000000   0.3000000  -0.4000000), wk =   0.0240000
        k(   39) = (   0.1000000   0.3000000  -0.3000000), wk =   0.0240000
        k(   40) = (   0.1000000   0.3000000  -0.2000000), wk =   0.0240000
        k(   41) = (   0.1000000   0.4000000  -0.5000000), wk =   0.0240000
        k(   42) = (   0.1000000   0.4000000  -0.4000000), wk =   0.0240000
        k(   43) = (   0.1000000   0.4000000  -0.3000000), wk =   0.0240000
        k(   44) = (   0.1000000  -0.5000000  -0.4000000), wk =   0.0240000
        k(   45) = (   0.2000000   0.4000000  -0.4000000), wk =   0.0240000
        k(   46) = (   0.2000000   0.4000000  -0.3000000), wk =   0.0240000
        k(   47) = (   0.2000000  -0.5000000  -0.3000000), wk =   0.0240000
        k(   48) = (   0.0000000  -0.1000000   0.0000000), wk =   0.0040000
        k(   49) = (   0.0000000  -0.2000000   0.0000000), wk =   0.0040000
        k(   50) = (   0.0000000  -0.3000000   0.0000000), wk =   0.0040000
        k(   51) = (   0.0000000  -0.4000000   0.0000000), wk =   0.0040000
        k(   52) = (   0.0000000   0.5000000   0.0000000), wk =   0.0020000
        k(   53) = (  -0.2000000   0.0000000  -0.1000000), wk =   0.0240000
        k(   54) = (   0.1000000  -0.1000000   0.1000000), wk =   0.0120000
        k(   55) = (  -0.3000000   0.0000000  -0.1000000), wk =   0.0240000
        k(   56) = (   0.1000000  -0.2000000   0.1000000), wk =   0.0120000
        k(   57) = (  -0.4000000   0.0000000  -0.1000000), wk =   0.0240000
        k(   58) = (   0.1000000  -0.3000000   0.1000000), wk =   0.0120000
        k(   59) = (   0.5000000   0.0000000  -0.1000000), wk =   0.0240000
        k(   60) = (   0.1000000   0.6000000   0.1000000), wk =   0.0120000
        k(   61) = (   0.4000000   0.0000000  -0.1000000), wk =   0.0240000
        k(   62) = (   0.1000000   0.5000000   0.1000000), wk =   0.0120000
        k(   63) = (   0.3000000   0.0000000  -0.1000000), wk =   0.0240000
        k(   64) = (   0.1000000   0.4000000   0.1000000), wk =   0.0120000
        k(   65) = (   0.2000000   0.0000000  -0.1000000), wk =   0.0240000
        k(   66) = (   0.1000000   0.3000000   0.1000000), wk =   0.0120000
        k(   67) = (   0.1000000   0.0000000  -0.1000000), wk =   0.0120000
        k(   68) = (  -0.3000000   0.0000000  -0.2000000), wk =   0.0240000
        k(   69) = (   0.2000000  -0.1000000   0.2000000), wk =   0.0120000
        k(   70) = (  -0.4000000   0.0000000  -0.2000000), wk =   0.0240000
        k(   71) = (   0.2000000  -0.2000000   0.2000000), wk =   0.0120000
        k(   72) = (   0.5000000   0.0000000  -0.2000000), wk =   0.0240000
        k(   73) = (   0.2000000   0.7000000   0.2000000), wk =   0.0120000
        k(   74) = (   0.4000000   0.0000000  -0.2000000), wk =   0.0240000
        k(   75) = (   0.2000000   0.6000000   0.2000000), wk =   0.0120000
        k(   76) = (   0.3000000   0.0000000  -0.2000000), wk =   0.0240000
        k(   77) = (   0.2000000   0.5000000   0.2000000), wk =   0.0120000
        k(   78) = (   0.2000000   0.0000000  -0.2000000), wk =   0.0120000
        k(   79) = (  -0.4000000   0.0000000  -0.3000000), wk =   0.0240000
        k(   80) = (   0.3000000  -0.1000000   0.3000000), wk =   0.0120000
        k(   81) = (   0.5000000   0.0000000  -0.3000000), wk =   0.0240000
        k(   82) = (   0.3000000   0.8000000   0.3000000), wk =   0.0120000
        k(   83) = (   0.4000000   0.0000000  -0.3000000), wk =   0.0240000
        k(   84) = (   0.3000000   0.7000000   0.3000000), wk =   0.0120000
        k(   85) = (   0.3000000   0.0000000  -0.3000000), wk =   0.0120000
        k(   86) = (   0.5000000   0.0000000  -0.4000000), wk =   0.0240000
        k(   87) = (   0.4000000   0.9000000   0.4000000), wk =   0.0120000
        k(   88) = (   0.4000000   0.0000000  -0.4000000), wk =   0.0120000
        k(   89) = (  -0.2000000   0.1000000  -0.1000000), wk =   0.0240000
        k(   90) = (  -0.3000000   0.1000000  -0.1000000), wk =   0.0240000
        k(   91) = (   0.2000000  -0.2000000   0.1000000), wk =   0.0240000
        k(   92) = (  -0.2000000   0.1000000   0.2000000), wk =   0.0240000
        k(   93) = (   0.6000000   0.1000000  -0.1000000), wk =   0.0240000
        k(   94) = (   0.2000000   0.7000000   0.1000000), wk =   0.0240000
        k(   95) = (   0.7000000   0.1000000   0.2000000), wk =   0.0240000
        k(   96) = (   0.2000000   0.6000000   0.1000000), wk =   0.0120000
        k(   97) = (   0.6000000   0.1000000   0.2000000), wk =   0.0120000
        k(   98) = (  -0.3000000   0.1000000  -0.2000000), wk =   0.0240000
        k(   99) = (   0.6000000   0.1000000  -0.2000000), wk =   0.0240000
        k(  100) = (   0.3000000   0.8000000   0.2000000), wk =   0.0240000
        k(  101) = (   0.8000000   0.2000000   0.3000000), wk =   0.0240000
        k(  102) = (   0.5000000   0.1000000  -0.2000000), wk =   0.0240000
        k(  103) = (   0.3000000   0.7000000   0.2000000), wk =   0.0240000
        k(  104) = (   0.7000000   0.2000000   0.3000000), wk =   0.0240000
        k(  105) = (   0.4000000   0.1000000  -0.2000000), wk =   0.0240000
        k(  106) = (   0.3000000   0.6000000   0.2000000), wk =   0.0240000
        k(  107) = (   0.6000000   0.2000000   0.3000000), wk =   0.0240000
        k(  108) = (   0.3000000   0.1000000  -0.2000000), wk =   0.0240000
        k(  109) = (   0.6000000   0.1000000  -0.3000000), wk =   0.0240000
        k(  110) = (   0.5000000   0.1000000  -0.3000000), wk =   0.0240000
        k(  111) = (   0.4000000   0.8000000   0.3000000), wk =   0.0240000
        k(  112) = (   0.8000000   0.3000000   0.4000000), wk =   0.0240000
        k(  113) = (   0.4000000   0.1000000  -0.3000000), wk =   0.0240000
        k(  114) = (   0.6000000   0.2000000  -0.2000000), wk =   0.0240000
        k(  115) = (   0.4000000   0.7000000   0.2000000), wk =   0.0120000
        k(  116) = (   0.7000000   0.2000000   0.4000000), wk =   0.0120000

     Dense  grid:     9257 G-vectors     FFT dimensions: (  30,  30,  30)

     Dynamical RAM for                 wfc:       0.07 MB

     Dynamical RAM for     wfc (w. buffer):       8.24 MB

     Dynamical RAM for           str. fact:       0.14 MB

     Dynamical RAM for           local pot:       0.00 MB

     Dynamical RAM for          nlocal pot:       0.28 MB

     Dynamical RAM for                qrad:       0.29 MB

     Dynamical RAM for          rho,v,vnew:       1.04 MB

     Dynamical RAM for               rhoin:       0.35 MB

     Dynamical RAM for            rho*nmix:       2.26 MB

     Dynamical RAM for           G-vectors:       0.60 MB

     Dynamical RAM for          h,s,v(r/c):       0.00 MB

     Dynamical RAM for          <psi|beta>:       0.00 MB

     Dynamical RAM for                 psi:       0.14 MB

     Dynamical RAM for                hpsi:       0.14 MB

     Dynamical RAM for                spsi:       0.14 MB

     Dynamical RAM for      wfcinit/wfcrot:       0.28 MB

     Dynamical RAM for           addusdens:       6.36 MB

     Dynamical RAM for          addusforce:       6.71 MB

     Estimated static dynamical RAM per process >      12.26 MB

     Estimated max dynamical RAM per process >      21.23 MB

     Check: negative core charge=   -0.000003

     Initial potential from superposition of free atoms

     starting charge       7.9989, renormalised to       8.0000
     Starting wfcs are    8 randomized atomic wfcs

     total cpu time spent up to now is        0.7 secs

     Self-consistent Calculation

     iteration #  1     ecut=    40.00 Ry     beta= 0.40
     Davidson diagonalization with overlap

---- Real-time Memory Report at c_bands before calling an iterative solver
            27 MiB given to the printing process from OS
             0 MiB allocation reported by mallinfo(arena+hblkhd)
        113713 MiB available memory on the node where the printing process lives
------------------
     ethr =  1.00E-02,  avg # of iterations =  2.0

     Threshold (ethr) on eigenvalues was too large:
     Diagonalizing with lowered threshold

     Davidson diagonalization with overlap

---- Real-time Memory Report at c_bands before calling an iterative solver
            33 MiB given to the printing process from OS
             0 MiB allocation reported by mallinfo(arena+hblkhd)
        113702 MiB available memory on the node where the printing process lives
------------------
     ethr =  4.93E-04,  avg # of iterations =  3.7

     total cpu time spent up to now is        2.7 secs

     total energy              =     -22.67501141 Ry
     estimated scf accuracy    <       0.05396002 Ry

     iteration #  2     ecut=    40.00 Ry     beta= 0.40
     Davidson diagonalization with overlap

---- Real-time Memory Report at c_bands before calling an iterative solver
            35 MiB given to the printing process from OS
             0 MiB allocation reported by mallinfo(arena+hblkhd)
        113701 MiB available memory on the node where the printing process lives
------------------
     ethr =  6.75E-04,  avg # of iterations =  1.0

     total cpu time spent up to now is        3.3 secs

     total energy              =     -22.67108112 Ry
     estimated scf accuracy    <       0.01640719 Ry

     iteration #  3     ecut=    40.00 Ry     beta= 0.40
     Davidson diagonalization with overlap

---- Real-time Memory Report at c_bands before calling an iterative solver
            35 MiB given to the printing process from OS
             0 MiB allocation reported by mallinfo(arena+hblkhd)
        113702 MiB available memory on the node where the printing process lives
------------------
     ethr =  2.05E-04,  avg # of iterations =  1.6

     total cpu time spent up to now is        4.1 secs

     total energy              =     -22.67257990 Ry
     estimated scf accuracy    <       0.00020832 Ry

     iteration #  4     ecut=    40.00 Ry     beta= 0.40
     Davidson diagonalization with overlap

---- Real-time Memory Report at c_bands before calling an iterative solver
            35 MiB given to the printing process from OS
             0 MiB allocation reported by mallinfo(arena+hblkhd)
        113712 MiB available memory on the node where the printing process lives
------------------
     ethr =  2.60E-06,  avg # of iterations =  6.0

     total cpu time spent up to now is        5.5 secs

     total energy              =     -22.67300807 Ry
     estimated scf accuracy    <       0.00001479 Ry

     iteration #  5     ecut=    40.00 Ry     beta= 0.40
     Davidson diagonalization with overlap

---- Real-time Memory Report at c_bands before calling an iterative solver
            36 MiB given to the printing process from OS
             0 MiB allocation reported by mallinfo(arena+hblkhd)
        113710 MiB available memory on the node where the printing process lives
------------------
     ethr =  1.85E-07,  avg # of iterations =  3.7

     total cpu time spent up to now is        6.5 secs

     total energy              =     -22.67301573 Ry
     estimated scf accuracy    <       0.00000049 Ry

     iteration #  6     ecut=    40.00 Ry     beta= 0.40
     Davidson diagonalization with overlap

---- Real-time Memory Report at c_bands before calling an iterative solver
            36 MiB given to the printing process from OS
             0 MiB allocation reported by mallinfo(arena+hblkhd)
        113710 MiB available memory on the node where the printing process lives
------------------
     ethr =  6.14E-09,  avg # of iterations =  6.4

     total cpu time spent up to now is        8.0 secs

     total energy              =     -22.67301588 Ry
     estimated scf accuracy    <       0.00000211 Ry

     iteration #  7     ecut=    40.00 Ry     beta= 0.40
     Davidson diagonalization with overlap

---- Real-time Memory Report at c_bands before calling an iterative solver
            36 MiB given to the printing process from OS
             0 MiB allocation reported by mallinfo(arena+hblkhd)
        113713 MiB available memory on the node where the printing process lives
------------------
     ethr =  6.14E-09,  avg # of iterations =  3.0

     total cpu time spent up to now is        9.1 secs

     total energy              =     -22.67301616 Ry
     estimated scf accuracy    <       0.00000027 Ry

     iteration #  8     ecut=    40.00 Ry     beta= 0.40
     Davidson diagonalization with overlap

---- Real-time Memory Report at c_bands before calling an iterative solver
            36 MiB given to the printing process from OS
             0 MiB allocation reported by mallinfo(arena+hblkhd)
        113714 MiB available memory on the node where the printing process lives
------------------
     ethr =  3.35E-09,  avg # of iterations =  2.0

     total cpu time spent up to now is        9.9 secs

     total energy              =     -22.67301617 Ry
     estimated scf accuracy    <       0.00000011 Ry

     iteration #  9     ecut=    40.00 Ry     beta= 0.40
     Davidson diagonalization with overlap

---- Real-time Memory Report at c_bands before calling an iterative solver
            36 MiB given to the printing process from OS
             0 MiB allocation reported by mallinfo(arena+hblkhd)
        113716 MiB available memory on the node where the printing process lives
------------------
     ethr =  1.40E-09,  avg # of iterations =  1.2

     total cpu time spent up to now is       10.6 secs

     End of self-consistent calculation

          k = 0.0000 0.0000 0.0000 (  1139 PWs)   bands (ev):

    -5.8231   6.1535   6.1535   6.2063

     occupation numbers 
     1.0000   1.0000   1.0000   1.0000

          k =-0.1000 0.1000-0.1000 (  1179 PWs)   bands (ev):

    -5.6915   5.0059   5.9533   5.9966

     occupation numbers 
     1.0000   1.0000   1.0000   1.0000

          k =-0.2000 0.2000-0.2000 (  1167 PWs)   bands (ev):

    -5.3029   3.1347   5.5705   5.6095

     occupation numbers 
     1.0000   1.0000   1.0000   1.0000

          k =-0.3000 0.3000-0.3000 (  1155 PWs)   bands (ev):

    -4.6832   1.3398   5.2347   5.2721

     occupation numbers 
     1.0000   1.0000   1.0000   1.0000

          k =-0.4000 0.4000-0.4000 (  1149 PWs)   bands (ev):

    -3.9278  -0.1472   5.0221   5.0593

     occupation numbers 
     1.0000   1.0000   1.0000   1.0000

          k = 0.5000-0.5000 0.5000 (  1158 PWs)   bands (ev):

    -3.4672  -0.8552   4.9505   4.9877

     occupation numbers 
     1.0000   1.0000   1.0000   1.0000

          k = 0.0000 0.2000 0.0000 (  1171 PWs)   bands (ev):

    -5.6475   5.2279   5.5732   5.5993

     occupation numbers 
     1.0000   1.0000   1.0000   1.0000

          k =-0.1000 0.3000-0.1000 (  1164 PWs)   bands (ev):

    -5.3432   3.6932   5.1353   5.3485

     occupation numbers 
     1.0000   1.0000   1.0000   1.0000

          k =-0.2000 0.4000-0.2000 (  1159 PWs)   bands (ev):

    -4.7960   1.9254   4.8152   4.9058

     occupation numbers 
     1.0000   1.0000   1.0000   1.0000

          k =-0.3000 0.5000-0.3000 (  1150 PWs)   bands (ev):

    -4.0652   0.3431   4.4876   4.6681

     occupation numbers 
     1.0000   1.0000   1.0000   1.0000

          k = 0.6000-0.4000 0.6000 (  1158 PWs)   bands (ev):

    -3.4140  -0.7051   4.1922   4.7022

     occupation numbers 
     1.0000   1.0000   1.0000   1.0000

          k = 0.5000-0.3000 0.5000 (  1157 PWs)   bands (ev):

    -3.5858  -0.4502   4.0596   4.9038

     occupation numbers 
     1.0000   1.0000   1.0000   1.0000

          k = 0.4000-0.2000 0.4000 (  1144 PWs)   bands (ev):

    -4.3247   0.8462   4.1157   5.2407

     occupation numbers 
     1.0000   1.0000   1.0000   1.0000

          k = 0.3000-0.1000 0.3000 (  1156 PWs)   bands (ev):

    -5.0058   2.5093   4.3871   5.6495

     occupation numbers 
     1.0000   1.0000   1.0000   1.0000

          k = 0.2000 0.0000 0.2000 (  1165 PWs)   bands (ev):

    -5.4743   4.1423   4.9881   5.9789

     occupation numbers 
     1.0000   1.0000   1.0000   1.0000

          k = 0.0000 0.4000 0.0000 (  1170 PWs)   bands (ev):

    -5.1245   3.5441   4.6579   4.6757

     occupation numbers 
     1.0000   1.0000   1.0000   1.0000

          k =-0.1000 0.5000-0.1000 (  1146 PWs)   bands (ev):

    -4.6557   2.2796   4.1749   4.3078

     occupation numbers 
     1.0000   1.0000   1.0000   1.0000

          k =-0.2000 0.6000-0.2000 (  1156 PWs)   bands (ev):

    -3.9749   0.8322   3.5364   4.1478

     occupation numbers 
     1.0000   1.0000   1.0000   1.0000

          k = 0.7000-0.3000 0.7000 (  1143 PWs)   bands (ev):

    -3.2345  -0.3626   3.0179   4.1928

     occupation numbers 
     1.0000   1.0000   1.0000   1.0000

          k = 0.6000-0.2000 0.6000 (  1163 PWs)   bands (ev):

    -3.0802  -0.5697   2.7113   4.4333

     occupation numbers 
     1.0000   1.0000   1.0000   1.0000

          k = 0.5000-0.1000 0.5000 (  1150 PWs)   bands (ev):

    -3.7448   0.4361   2.6814   4.8341

     occupation numbers 
     1.0000   1.0000   1.0000   1.0000

          k = 0.4000 0.0000 0.4000 (  1151 PWs)   bands (ev):

    -4.4687   1.6940   3.1243   5.3091

     occupation numbers 
     1.0000   1.0000   1.0000   1.0000

          k = 0.0000 0.6000 0.0000 (  1146 PWs)   bands (ev):

    -4.2668   1.7517   3.9140   3.9284

     occupation numbers 
     1.0000   1.0000   1.0000   1.0000

          k =-0.1000 0.7000-0.1000 (  1149 PWs)   bands (ev):

    -3.6494   0.7358   3.2963   3.7081

     occupation numbers 
     1.0000   1.0000   1.0000   1.0000

          k = 0.8000-0.2000 0.8000 (  1146 PWs)   bands (ev):

    -2.8917  -0.2777   2.4514   3.7153

     occupation numbers 
     1.0000   1.0000   1.0000   1.0000

          k = 0.7000-0.1000 0.7000 (  1150 PWs)   bands (ev):

    -2.4683  -0.7529   1.8841   3.9327

     occupation numbers 
     1.0000   1.0000   1.0000   1.0000

          k = 0.6000-0.0000 0.6000 (  1145 PWs)   bands (ev):

    -3.0164  -0.1453   1.8465   4.3325

     occupation numbers 
     1.0000   1.0000   1.0000   1.0000

          k = 0.0000 0.8000 0.0000 (  1154 PWs)   bands (ev):

    -3.0985  -0.0147   3.4475   3.4604

     occupation numbers 
     1.0000   1.0000   1.0000   1.0000

          k = 0.9000-0.1000 0.9000 (  1148 PWs)   bands (ev):

    -2.3637  -0.8609   2.8602   3.3988

     occupation numbers 
     1.0000   1.0000   1.0000   1.0000

          k = 0.8000 0.0000 0.8000 (  1144 PWs)   bands (ev):

    -1.8917  -1.2705   2.0549   3.5674

     occupation numbers 
     1.0000   1.0000   1.0000   1.0000

          k = 0.0000-1.0000 0.0000 (  1162 PWs)   bands (ev):

    -1.6714  -1.6486   3.2894   3.3019

     occupation numbers 
     1.0000   1.0000   1.0000   1.0000

          k =-0.2000 0.4000 0.0000 (  1154 PWs)   bands (ev):

    -4.9576   2.7751   4.0608   5.2050

     occupation numbers 
     1.0000   1.0000   1.0000   1.0000

          k =-0.3000 0.5000-0.1000 (  1150 PWs)   bands (ev):

    -4.3416   1.3580   3.4717   4.8198

     occupation numbers 
     1.0000   1.0000   1.0000   1.0000

          k = 0.6000-0.4000 0.8000 (  1149 PWs)   bands (ev):

    -3.5866  -0.0153   3.2438   4.4584

     occupation numbers 
     1.0000   1.0000   1.0000   1.0000

          k = 0.5000-0.3000 0.7000 (  1156 PWs)   bands (ev):

    -3.1198  -0.7001   3.1878   4.3117

     occupation numbers 
     1.0000   1.0000   1.0000   1.0000

          k =-0.2000 0.6000 0.0000 (  1152 PWs)   bands (ev):

    -4.1147   1.3835   3.3278   4.0720

     occupation numbers 
     1.0000   1.0000   1.0000   1.0000

          k = 0.7000-0.3000 0.9000 (  1158 PWs)   bands (ev):

    -3.3879   0.2737   2.7117   3.7264

     occupation numbers 
     1.0000   1.0000   1.0000   1.0000

          k = 0.6000-0.2000 0.8000 (  1158 PWs)   bands (ev):

    -2.7291  -0.5969   2.3006   3.6641

     occupation numbers 
     1.0000   1.0000   1.0000   1.0000

          k = 0.5000-0.1000 0.7000 (  1152 PWs)   bands (ev):

    -2.9372  -0.3246   2.1417   3.9053

     occupation numbers 
     1.0000   1.0000   1.0000   1.0000

          k = 0.4000 0.0000 0.6000 (  1149 PWs)   bands (ev):

    -3.6813   0.6430   2.4334   4.3511

     occupation numbers 
     1.0000   1.0000   1.0000   1.0000

          k = 0.8000-0.2000 1.0000 (  1162 PWs)   bands (ev):

    -2.9765  -0.1051   2.9130   3.2493

     occupation numbers 
     1.0000   1.0000   1.0000   1.0000

          k = 0.7000-0.1000 0.9000 (  1153 PWs)   bands (ev):

    -2.2312  -0.8821   2.2052   3.1451

     occupation numbers 
     1.0000   1.0000   1.0000   1.0000

          k = 0.6000 0.0000 0.8000 (  1153 PWs)   bands (ev):

    -2.2433  -0.8413   1.7749   3.4171

     occupation numbers 
     1.0000   1.0000   1.0000   1.0000

          k =-0.2000-1.0000 0.0000 (  1156 PWs)   bands (ev):

    -1.6167  -1.5933   2.8636   2.8771

     occupation numbers 
     1.0000   1.0000   1.0000   1.0000

          k = 0.6000-0.2000 1.0000 (  1151 PWs)   bands (ev):

    -2.6486  -0.4082   2.1348   3.1443

     occupation numbers 
     1.0000   1.0000   1.0000   1.0000

          k = 0.5000-0.1000 0.9000 (  1148 PWs)   bands (ev):

    -2.1345  -0.9142   1.9794   2.8787

     occupation numbers 
     1.0000   1.0000   1.0000   1.0000

          k =-0.4000-1.0000 0.0000 (  1154 PWs)   bands (ev):

    -1.5198  -1.4953   2.3345   2.3492

     occupation numbers 
     1.0000   1.0000   1.0000   1.0000

          k =-0.1000-0.1000-0.1000 (  1179 PWs)   bands (ev):

    -5.6918   5.0385   5.9556   5.9556

     occupation numbers 
     1.0000   1.0000   1.0000   1.0000

          k =-0.2000-0.2000-0.2000 (  1167 PWs)   bands (ev):

    -5.3042   3.1598   5.5762   5.5762

     occupation numbers 
     1.0000   1.0000   1.0000   1.0000

          k =-0.3000-0.3000-0.3000 (  1155 PWs)   bands (ev):

    -4.6869   1.3639   5.2429   5.2429

     occupation numbers 
     1.0000   1.0000   1.0000   1.0000

          k =-0.4000-0.4000-0.4000 (  1149 PWs)   bands (ev):

    -3.9373  -0.1190   5.0319   5.0319

     occupation numbers 
     1.0000   1.0000   1.0000   1.0000

          k = 0.5000 0.5000 0.5000 (  1158 PWs)   bands (ev):

    -3.4838  -0.8203   4.9607   4.9607

     occupation numbers 
     1.0000   1.0000   1.0000   1.0000

          k = 0.3000 0.1000-0.1000 (  1164 PWs)   bands (ev):

    -5.3435   3.7024   5.1568   5.3136

     occupation numbers 
     1.0000   1.0000   1.0000   1.0000

          k =-0.3000-0.1000-0.1000 (  1164 PWs)   bands (ev):

    -5.3441   3.7254   5.1381   5.3063

     occupation numbers 
     1.0000   1.0000   1.0000   1.0000

          k = 0.4000 0.2000-0.2000 (  1159 PWs)   bands (ev):

    -4.7965   1.9311   4.8330   4.8795

     occupation numbers 
     1.0000   1.0000   1.0000   1.0000

          k =-0.4000-0.2000-0.2000 (  1159 PWs)   bands (ev):

    -4.7989   1.9535   4.8203   4.8708

     occupation numbers 
     1.0000   1.0000   1.0000   1.0000

          k = 0.5000 0.3000-0.3000 (  1150 PWs)   bands (ev):

    -4.0660   0.3465   4.4603   4.6915

     occupation numbers 
     1.0000   1.0000   1.0000   1.0000

          k =-0.5000-0.3000-0.3000 (  1150 PWs)   bands (ev):

    -4.0726   0.3719   4.4585   4.6747

     occupation numbers 
     1.0000   1.0000   1.0000   1.0000

          k =-0.4000-0.6000 0.6000 (  1158 PWs)   bands (ev):

    -3.4142  -0.7041   4.1685   4.7266

     occupation numbers 
     1.0000   1.0000   1.0000   1.0000

          k = 0.4000 0.6000 0.6000 (  1158 PWs)   bands (ev):

    -3.4293  -0.6704   4.1669   4.7098

     occupation numbers 
     1.0000   1.0000   1.0000   1.0000

          k =-0.3000-0.5000 0.5000 (  1157 PWs)   bands (ev):

    -3.5846  -0.4524   4.0389   4.9300

     occupation numbers 
     1.0000   1.0000   1.0000   1.0000

          k = 0.3000 0.5000 0.5000 (  1157 PWs)   bands (ev):

    -3.5972  -0.4204   4.0366   4.9117

     occupation numbers 
     1.0000   1.0000   1.0000   1.0000

          k =-0.2000-0.4000 0.4000 (  1144 PWs)   bands (ev):

    -4.3235   0.8415   4.0983   5.2692

     occupation numbers 
     1.0000   1.0000   1.0000   1.0000

          k = 0.2000 0.4000 0.4000 (  1144 PWs)   bands (ev):

    -4.3289   0.8683   4.0944   5.2478

     occupation numbers 
     1.0000   1.0000   1.0000   1.0000

          k =-0.1000-0.3000 0.3000 (  1156 PWs)   bands (ev):

    -5.0048   2.4998   4.3749   5.6806

     occupation numbers 
     1.0000   1.0000   1.0000   1.0000

          k = 0.1000 0.3000 0.3000 (  1156 PWs)   bands (ev):

    -5.0069   2.5273   4.3680   5.6539

     occupation numbers 
     1.0000   1.0000   1.0000   1.0000

          k = 0.0000-0.2000 0.2000 (  1165 PWs)   bands (ev):

    -5.4737   4.1162   4.9914   6.0122

     occupation numbers 
     1.0000   1.0000   1.0000   1.0000

          k = 0.5000 0.1000-0.1000 (  1146 PWs)   bands (ev):

    -4.6563   2.2904   4.1439   4.3252

     occupation numbers 
     1.0000   1.0000   1.0000   1.0000

          k =-0.5000-0.1000-0.1000 (  1146 PWs)   bands (ev):

    -4.6575   2.3065   4.1420   4.3097

     occupation numbers 
     1.0000   1.0000   1.0000   1.0000

          k = 0.6000 0.2000-0.2000 (  1156 PWs)   bands (ev):

    -3.9760   0.8409   3.5087   4.1653

     occupation numbers 
     1.0000   1.0000   1.0000   1.0000

          k =-0.6000-0.2000-0.2000 (  1156 PWs)   bands (ev):

    -3.9802   0.8626   3.5048   4.1509

     occupation numbers 
     1.0000   1.0000   1.0000   1.0000

          k =-0.3000-0.7000 0.7000 (  1143 PWs)   bands (ev):

    -3.2350  -0.3585   2.9954   4.2112

     occupation numbers 
     1.0000   1.0000   1.0000   1.0000

          k = 0.3000 0.7000 0.7000 (  1143 PWs)   bands (ev):

    -3.2469  -0.3282   2.9916   4.1966

     occupation numbers 
     1.0000   1.0000   1.0000   1.0000

          k =-0.2000-0.6000 0.6000 (  1163 PWs)   bands (ev):

    -3.0772  -0.5737   2.6944   4.4534

     occupation numbers 
     1.0000   1.0000   1.0000   1.0000

          k = 0.2000 0.6000 0.6000 (  1163 PWs)   bands (ev):

    -3.0931  -0.5381   2.6899   4.4371

     occupation numbers 
     1.0000   1.0000   1.0000   1.0000

          k =-0.1000-0.5000 0.5000 (  1150 PWs)   bands (ev):

    -3.7411   0.4246   2.6720   4.8565

     occupation numbers 
     1.0000   1.0000   1.0000   1.0000

          k = 0.1000 0.5000 0.5000 (  1150 PWs)   bands (ev):

    -3.7485   0.4540   2.6659   4.8369

     occupation numbers 
     1.0000   1.0000   1.0000   1.0000

          k = 0.0000-0.4000 0.4000 (  1151 PWs)   bands (ev):

    -4.4658   1.6702   3.1279   5.3342

     occupation numbers 
     1.0000   1.0000   1.0000   1.0000

          k = 0.7000 0.1000-0.1000 (  1149 PWs)   bands (ev):

    -3.6504   0.7429   3.2734   3.7225

     occupation numbers 
     1.0000   1.0000   1.0000   1.0000

          k =-0.7000-0.1000-0.1000 (  1149 PWs)   bands (ev):

    -3.6525   0.7526   3.2777   3.7092

     occupation numbers 
     1.0000   1.0000   1.0000   1.0000

          k =-0.2000-0.8000 0.8000 (  1146 PWs)   bands (ev):

    -2.8925  -0.2715   2.4295   3.7301

     occupation numbers 
     1.0000   1.0000   1.0000   1.0000

          k = 0.2000 0.8000 0.8000 (  1146 PWs)   bands (ev):

    -2.9008  -0.2516   2.4311   3.7167

     occupation numbers 
     1.0000   1.0000   1.0000   1.0000

          k =-0.1000-0.7000 0.7000 (  1150 PWs)   bands (ev):

    -2.4617  -0.7607   1.8694   3.9485

     occupation numbers 
     1.0000   1.0000   1.0000   1.0000

          k = 0.1000 0.7000 0.7000 (  1150 PWs)   bands (ev):

    -2.4802  -0.7280   1.8697   3.9339

     occupation numbers 
     1.0000   1.0000   1.0000   1.0000

          k = 0.0000-0.6000 0.6000 (  1145 PWs)   bands (ev):

    -3.0071  -0.1684   1.8447   4.3499

     occupation numbers 
     1.0000   1.0000   1.0000   1.0000

          k =-0.1000-0.9000 0.9000 (  1148 PWs)   bands (ev):

    -2.3644  -0.8585   2.8443   3.4118

     occupation numbers 
     1.0000   1.0000   1.0000   1.0000

          k = 0.1000 0.9000 0.9000 (  1148 PWs)   bands (ev):

    -2.3689  -0.8517   2.8545   3.3991

     occupation numbers 
     1.0000   1.0000   1.0000   1.0000

          k = 0.0000-0.8000 0.8000 (  1144 PWs)   bands (ev):

    -1.8714  -1.2934   2.0432   3.5809

     occupation numbers 
     1.0000   1.0000   1.0000   1.0000

          k = 0.4000 0.2000 0.0000 (  1154 PWs)   bands (ev):

    -4.9589   2.7984   4.0570   5.1786

     occupation numbers 
     1.0000   1.0000   1.0000   1.0000

          k = 0.5000 0.3000-0.1000 (  1150 PWs)   bands (ev):

    -4.3436   1.3710   3.4748   4.7989

     occupation numbers 
     1.0000   1.0000   1.0000   1.0000

          k =-0.5000-0.3000-0.1000 (  1150 PWs)   bands (ev):

    -4.3456   1.3874   3.4591   4.8017

     occupation numbers 
     1.0000   1.0000   1.0000   1.0000

          k = 0.1000 0.5000-0.3000 (  1150 PWs)   bands (ev):

    -4.3418   1.3618   3.4616   4.8266

     occupation numbers 
     1.0000   1.0000   1.0000   1.0000

          k =-0.4000-0.6000 0.8000 (  1149 PWs)   bands (ev):

    -3.5889  -0.0085   3.2478   4.4464

     occupation numbers 
     1.0000   1.0000   1.0000   1.0000

          k = 0.4000 0.6000 0.8000 (  1149 PWs)   bands (ev):

    -3.5964   0.0166   3.2291   4.4495

     occupation numbers 
     1.0000   1.0000   1.0000   1.0000

          k =-0.8000-0.4000 0.6000 (  1149 PWs)   bands (ev):

    -3.5868  -0.0126   3.2272   4.4743

     occupation numbers 
     1.0000   1.0000   1.0000   1.0000

          k = 0.3000 0.5000 0.7000 (  1156 PWs)   bands (ev):

    -3.1360  -0.6643   3.1702   4.3107

     occupation numbers 
     1.0000   1.0000   1.0000   1.0000

          k =-0.7000-0.3000 0.5000 (  1156 PWs)   bands (ev):

    -3.1187  -0.7006   3.1663   4.3359

     occupation numbers 
     1.0000   1.0000   1.0000   1.0000

          k = 0.6000 0.2000 0.0000 (  1152 PWs)   bands (ev):

    -4.1170   1.4017   3.3250   4.0538

     occupation numbers 
     1.0000   1.0000   1.0000   1.0000

          k =-0.3000-0.7000 0.9000 (  1158 PWs)   bands (ev):

    -3.3911   0.2871   2.7027   3.7216

     occupation numbers 
     1.0000   1.0000   1.0000   1.0000

          k = 0.3000 0.7000 0.9000 (  1158 PWs)   bands (ev):

    -3.3948   0.3018   2.6940   3.7201

     occupation numbers 
     1.0000   1.0000   1.0000   1.0000

          k =-0.9000-0.3000 0.7000 (  1158 PWs)   bands (ev):

    -3.3881   0.2781   2.6916   3.7425

     occupation numbers 
     1.0000   1.0000   1.0000   1.0000

          k =-0.2000-0.6000 0.8000 (  1158 PWs)   bands (ev):

    -2.7297  -0.5935   2.2901   3.6708

     occupation numbers 
     1.0000   1.0000   1.0000   1.0000

          k = 0.2000 0.6000 0.8000 (  1158 PWs)   bands (ev):

    -2.7438  -0.5630   2.2808   3.6643

     occupation numbers 
     1.0000   1.0000   1.0000   1.0000

          k =-0.8000-0.2000 0.6000 (  1158 PWs)   bands (ev):

    -2.7270  -0.5972   2.2785   3.6857

     occupation numbers 
     1.0000   1.0000   1.0000   1.0000

          k =-0.1000-0.5000 0.7000 (  1152 PWs)   bands (ev):

    -2.9317  -0.3363   2.1352   3.9195

     occupation numbers 
     1.0000   1.0000   1.0000   1.0000

          k = 0.1000 0.5000 0.7000 (  1152 PWs)   bands (ev):

    -2.9443  -0.3042   2.1275   3.9067

     occupation numbers 
     1.0000   1.0000   1.0000   1.0000

          k =-0.7000-0.1000 0.5000 (  1152 PWs)   bands (ev):

    -2.9313  -0.3354   2.1279   3.9267

     occupation numbers 
     1.0000   1.0000   1.0000   1.0000

          k = 0.0000-0.4000 0.6000 (  1149 PWs)   bands (ev):

    -3.6761   0.6202   2.4350   4.3713

     occupation numbers 
     1.0000   1.0000   1.0000   1.0000

          k =-0.2000-0.8000 1.0000 (  1162 PWs)   bands (ev):

    -2.9805  -0.0935   2.9123   3.2399

     occupation numbers 
     1.0000   1.0000   1.0000   1.0000

          k =-0.1000-0.7000 0.9000 (  1153 PWs)   bands (ev):

    -2.2328  -0.8774   2.1911   3.1549

     occupation numbers 
     1.0000   1.0000   1.0000   1.0000

          k = 0.1000 0.7000 0.9000 (  1153 PWs)   bands (ev):

    -2.2425  -0.8625   2.1962   3.1449

     occupation numbers 
     1.0000   1.0000   1.0000   1.0000

          k =-0.9000-0.1000 0.7000 (  1153 PWs)   bands (ev):

    -2.2283  -0.8844   2.1877   3.1620

     occupation numbers 
     1.0000   1.0000   1.0000   1.0000

          k = 0.0000-0.6000 0.8000 (  1153 PWs)   bands (ev):

    -2.2284  -0.8638   1.7678   3.4323

     occupation numbers 
     1.0000   1.0000   1.0000   1.0000

          k =-0.2000-0.6000 1.0000 (  1151 PWs)   bands (ev):

    -2.6574  -0.3884   2.1369   3.1294

     occupation numbers 
     1.0000   1.0000   1.0000   1.0000

          k = 0.1000 0.5000 0.9000 (  1148 PWs)   bands (ev):

    -2.1490  -0.8907   1.9748   2.8741

     occupation numbers 
     1.0000   1.0000   1.0000   1.0000

          k =-0.9000-0.1000 0.5000 (  1148 PWs)   bands (ev):

    -2.1283  -0.9222   1.9669   2.8938

     occupation numbers 
     1.0000   1.0000   1.0000   1.0000

     highest occupied level (ev):     6.2063

!    total energy              =     -22.67301617 Ry
     estimated scf accuracy    <          7.3E-10 Ry

     The total energy is the sum of the following terms:
     one-electron contribution =       5.13729871 Ry
     hartree contribution      =       1.07640938 Ry
     xc contribution           =     -12.08582999 Ry
     ewald contribution        =     -16.80089427 Ry

     convergence has been achieved in   9 iterations

     Forces acting on atoms (cartesian axes, Ry/au):

     atom    1 type  1   force =     0.00188555    0.00188555    0.00188555
     atom    2 type  1   force =    -0.00188555   -0.00188555   -0.00188555
     The non-local contrib.  to forces
     atom    1 type  1   force =     0.00200149    0.00200149    0.00200149
     atom    2 type  1   force =    -0.00200074   -0.00200074   -0.00200074
     The ionic contribution  to forces
     atom    1 type  1   force =     0.00339154    0.00339154    0.00339154
     atom    2 type  1   force =    -0.00339154   -0.00339154   -0.00339154
     The local contribution  to forces
     atom    1 type  1   force =    -0.00332094   -0.00332094   -0.00332094
     atom    2 type  1   force =     0.00332017    0.00332017    0.00332017
     The core correction contribution to forces
     atom    1 type  1   force =    -0.00018872   -0.00018872   -0.00018872
     atom    2 type  1   force =     0.00018550    0.00018550    0.00018550
     The Hubbard contrib.    to forces
     atom    1 type  1   force =     0.00000000    0.00000000    0.00000000
     atom    2 type  1   force =     0.00000000    0.00000000    0.00000000
     The SCF correction term to forces
     atom    1 type  1   force =     0.00000046    0.00000046    0.00000046
     atom    2 type  1   force =    -0.00000066   -0.00000066   -0.00000066

     Total force =     0.004619     Total SCF correction =     0.000001

     BFGS Geometry Optimization
     Energy error            =      0.0E+00 Ry
     Gradient error          =      1.9E-03 Ry/Bohr

     number of scf cycles    =   1
     number of bfgs steps    =   0

     energy             new  =     -22.6730161721 Ry

     new trust radius        =       0.0032658752 bohr
     new conv_thr            =       0.0000000010 Ry


ATOMIC_POSITIONS (angstrom)
Si               0.0009977922        0.0009977922        0.0009977922
Si               1.3600022078        1.3600022078        1.3600022078



     Writing config-only to output data dir ./silicon.save/ :
     XML data file
     NEW-OLD atomic charge density approx. for the potential

     Check: negative core charge=   -0.000003

     total cpu time spent up to now is       10.7 secs

     Self-consistent Calculation

     iteration #  1     ecut=    40.00 Ry     beta= 0.40
     Davidson diagonalization with overlap

---- Real-time Memory Report at c_bands before calling an iterative solver
            37 MiB given to the printing process from OS
             0 MiB allocation reported by mallinfo(arena+hblkhd)
        113721 MiB available memory on the node where the printing process lives
------------------
     ethr =  1.00E-06,  avg # of iterations =  2.4

     Threshold (ethr) on eigenvalues was too large:
     Diagonalizing with lowered threshold

     Davidson diagonalization with overlap

---- Real-time Memory Report at c_bands before calling an iterative solver
            37 MiB given to the printing process from OS
             0 MiB allocation reported by mallinfo(arena+hblkhd)
        113721 MiB available memory on the node where the printing process lives
------------------
     ethr =  7.48E-09,  avg # of iterations =  6.6

     total cpu time spent up to now is       13.2 secs

     total energy              =     -22.67303173 Ry
     estimated scf accuracy    <       0.00000040 Ry

     iteration #  2     ecut=    40.00 Ry     beta= 0.40
     Davidson diagonalization with overlap

---- Real-time Memory Report at c_bands before calling an iterative solver
            37 MiB given to the printing process from OS
             0 MiB allocation reported by mallinfo(arena+hblkhd)
        113709 MiB available memory on the node where the printing process lives
------------------
     ethr =  4.96E-09,  avg # of iterations =  1.0

     total cpu time spent up to now is       13.9 secs

     total energy              =     -22.67303172 Ry
     estimated scf accuracy    <       0.00000013 Ry

     iteration #  3     ecut=    40.00 Ry     beta= 0.40
     Davidson diagonalization with overlap

---- Real-time Memory Report at c_bands before calling an iterative solver
            37 MiB given to the printing process from OS
             0 MiB allocation reported by mallinfo(arena+hblkhd)
        113709 MiB available memory on the node where the printing process lives
------------------
     ethr =  1.58E-09,  avg # of iterations =  1.9

     total cpu time spent up to now is       14.6 secs

     total energy              =     -22.67303173 Ry
     estimated scf accuracy    <          2.9E-09 Ry

     iteration #  4     ecut=    40.00 Ry     beta= 0.40
     Davidson diagonalization with overlap

---- Real-time Memory Report at c_bands before calling an iterative solver
            37 MiB given to the printing process from OS
             0 MiB allocation reported by mallinfo(arena+hblkhd)
        113709 MiB available memory on the node where the printing process lives
------------------
     ethr =  3.58E-11,  avg # of iterations =  5.1

     total cpu time spent up to now is       15.9 secs

     total energy              =     -22.67303173 Ry
     estimated scf accuracy    <          1.5E-09 Ry

     iteration #  5     ecut=    40.00 Ry     beta= 0.40
     Davidson diagonalization with overlap

---- Real-time Memory Report at c_bands before calling an iterative solver
            37 MiB given to the printing process from OS
             0 MiB allocation reported by mallinfo(arena+hblkhd)
        113706 MiB available memory on the node where the printing process lives
------------------
     ethr =  1.91E-11,  avg # of iterations =  2.3

     total cpu time spent up to now is       16.7 secs

     End of self-consistent calculation

          k = 0.0000 0.0000 0.0000 (  1139 PWs)   bands (ev):

    -5.8231   6.1630   6.1630   6.1870

     occupation numbers 
     1.0000   1.0000   1.0000   1.0000

          k =-0.1000 0.1000-0.1000 (  1179 PWs)   bands (ev):

    -5.6916   5.0105   5.9624   5.9820

     occupation numbers 
     1.0000   1.0000   1.0000   1.0000

          k =-0.2000 0.2000-0.2000 (  1167 PWs)   bands (ev):

    -5.3031   3.1381   5.5792   5.5969

     occupation numbers 
     1.0000   1.0000   1.0000   1.0000

          k =-0.3000 0.3000-0.3000 (  1155 PWs)   bands (ev):

    -4.6837   1.3431   5.2434   5.2604

     occupation numbers 
     1.0000   1.0000   1.0000   1.0000

          k =-0.4000 0.4000-0.4000 (  1149 PWs)   bands (ev):

    -3.9291  -0.1434   5.0310   5.0479

     occupation numbers 
     1.0000   1.0000   1.0000   1.0000

          k = 0.5000-0.5000 0.5000 (  1158 PWs)   bands (ev):

    -3.4695  -0.8504   4.9594   4.9763

     occupation numbers 
     1.0000   1.0000   1.0000   1.0000

          k = 0.0000 0.2000 0.0000 (  1171 PWs)   bands (ev):

    -5.6475   5.2288   5.5800   5.5916

     occupation numbers 
     1.0000   1.0000   1.0000   1.0000

          k =-0.1000 0.3000-0.1000 (  1164 PWs)   bands (ev):

    -5.3434   3.7001   5.1418   5.3329

     occupation numbers 
     1.0000   1.0000   1.0000   1.0000

          k =-0.2000 0.4000-0.2000 (  1159 PWs)   bands (ev):

    -4.7965   1.9308   4.8219   4.8927

     occupation numbers 
     1.0000   1.0000   1.0000   1.0000

          k =-0.3000 0.5000-0.3000 (  1150 PWs)   bands (ev):

    -4.0664   0.3479   4.4764   4.6751

     occupation numbers 
     1.0000   1.0000   1.0000   1.0000

          k = 0.6000-0.4000 0.6000 (  1158 PWs)   bands (ev):

    -3.4161  -0.7001   4.1824   4.7098

     occupation numbers 
     1.0000   1.0000   1.0000   1.0000

          k = 0.5000-0.3000 0.5000 (  1157 PWs)   bands (ev):

    -3.5870  -0.4468   4.0508   4.9119

     occupation numbers 
     1.0000   1.0000   1.0000   1.0000

          k = 0.4000-0.2000 0.4000 (  1144 PWs)   bands (ev):

    -4.3249   0.8479   4.1081   5.2493

     occupation numbers 
     1.0000   1.0000   1.0000   1.0000

          k = 0.3000-0.1000 0.3000 (  1156 PWs)   bands (ev):

    -5.0057   2.5092   4.3812   5.6584

     occupation numbers 
     1.0000   1.0000   1.0000   1.0000

          k = 0.2000 0.0000 0.2000 (  1165 PWs)   bands (ev):

    -5.4741   4.1353   4.9890   5.9878

     occupation numbers 
     1.0000   1.0000   1.0000   1.0000

          k = 0.0000 0.4000 0.0000 (  1170 PWs)   bands (ev):

    -5.1245   3.5443   4.6626   4.6707

     occupation numbers 
     1.0000   1.0000   1.0000   1.0000

          k =-0.1000 0.5000-0.1000 (  1146 PWs)   bands (ev):

    -4.6561   2.2862   4.1620   4.3126

     occupation numbers 
     1.0000   1.0000   1.0000   1.0000

          k =-0.2000 0.6000-0.2000 (  1156 PWs)   bands (ev):

    -3.9759   0.8387   3.5246   4.1529

     occupation numbers 
     1.0000   1.0000   1.0000   1.0000

          k = 0.7000-0.3000 0.7000 (  1143 PWs)   bands (ev):

    -3.2363  -0.3568   3.0082   4.1982

     occupation numbers 
     1.0000   1.0000   1.0000   1.0000

          k = 0.6000-0.2000 0.6000 (  1163 PWs)   bands (ev):

    -3.0811  -0.5665   2.7038   4.4392

     occupation numbers 
     1.0000   1.0000   1.0000   1.0000

          k = 0.5000-0.1000 0.5000 (  1150 PWs)   bands (ev):

    -3.7443   0.4354   2.6768   4.8405

     occupation numbers 
     1.0000   1.0000   1.0000   1.0000

          k = 0.4000 0.0000 0.4000 (  1151 PWs)   bands (ev):

    -4.4679   1.6875   3.1253   5.3158

     occupation numbers 
     1.0000   1.0000   1.0000   1.0000

          k = 0.0000 0.6000 0.0000 (  1146 PWs)   bands (ev):

    -4.2668   1.7518   3.9178   3.9244

     occupation numbers 
     1.0000   1.0000   1.0000   1.0000

          k =-0.1000 0.7000-0.1000 (  1149 PWs)   bands (ev):

    -3.6501   0.7400   3.2875   3.7122

     occupation numbers 
     1.0000   1.0000   1.0000   1.0000

          k = 0.8000-0.2000 0.8000 (  1146 PWs)   bands (ev):

    -2.8931  -0.2725   2.4427   3.7195

     occupation numbers 
     1.0000   1.0000   1.0000   1.0000

          k = 0.7000-0.1000 0.7000 (  1150 PWs)   bands (ev):

    -2.4681  -0.7517   1.8781   3.9371

     occupation numbers 
     1.0000   1.0000   1.0000   1.0000

          k = 0.6000-0.0000 0.6000 (  1145 PWs)   bands (ev):

    -3.0138  -0.1516   1.8460   4.3372

     occupation numbers 
     1.0000   1.0000   1.0000   1.0000

          k = 0.0000 0.8000 0.0000 (  1154 PWs)   bands (ev):

    -3.0985  -0.0147   3.4509   3.4568

     occupation numbers 
     1.0000   1.0000   1.0000   1.0000

          k = 0.9000-0.1000 0.9000 (  1148 PWs)   bands (ev):

    -2.3645  -0.8591   2.8550   3.4023

     occupation numbers 
     1.0000   1.0000   1.0000   1.0000

          k = 0.8000 0.0000 0.8000 (  1144 PWs)   bands (ev):

    -1.8861  -1.2767   2.0516   3.5710

     occupation numbers 
     1.0000   1.0000   1.0000   1.0000

          k = 0.0000-1.0000 0.0000 (  1162 PWs)   bands (ev):

    -1.6652  -1.6548   3.2927   3.2984

     occupation numbers 
     1.0000   1.0000   1.0000   1.0000

          k =-0.2000 0.4000 0.0000 (  1154 PWs)   bands (ev):

    -4.9580   2.7815   4.0598   5.1976

     occupation numbers 
     1.0000   1.0000   1.0000   1.0000

          k =-0.3000 0.5000-0.1000 (  1150 PWs)   bands (ev):

    -4.3424   1.3642   3.4691   4.8153

     occupation numbers 
     1.0000   1.0000   1.0000   1.0000

          k = 0.6000-0.4000 0.8000 (  1149 PWs)   bands (ev):

    -3.5883  -0.0097   3.2402   4.4576

     occupation numbers 
     1.0000   1.0000   1.0000   1.0000

          k = 0.5000-0.3000 0.7000 (  1156 PWs)   bands (ev):

    -3.1218  -0.6953   3.1825   4.3148

     occupation numbers 
     1.0000   1.0000   1.0000   1.0000

          k =-0.2000 0.6000 0.0000 (  1152 PWs)   bands (ev):

    -4.1153   1.3885   3.3271   4.0669

     occupation numbers 
     1.0000   1.0000   1.0000   1.0000

          k = 0.7000-0.3000 0.9000 (  1158 PWs)   bands (ev):

    -3.3893   0.2799   2.7054   3.7270

     occupation numbers 
     1.0000   1.0000   1.0000   1.0000

          k = 0.6000-0.2000 0.8000 (  1158 PWs)   bands (ev):

    -2.7309  -0.5919   2.2935   3.6679

     occupation numbers 
     1.0000   1.0000   1.0000   1.0000

          k = 0.5000-0.1000 0.7000 (  1152 PWs)   bands (ev):

    -2.9366  -0.3249   2.1370   3.9103

     occupation numbers 
     1.0000   1.0000   1.0000   1.0000

          k = 0.4000 0.0000 0.6000 (  1149 PWs)   bands (ev):

    -3.6798   0.6368   2.4338   4.3566

     occupation numbers 
     1.0000   1.0000   1.0000   1.0000

          k = 0.8000-0.2000 1.0000 (  1162 PWs)   bands (ev):

    -2.9776  -0.1019   2.9130   3.2466

     occupation numbers 
     1.0000   1.0000   1.0000   1.0000

          k = 0.7000-0.1000 0.9000 (  1153 PWs)   bands (ev):

    -2.2325  -0.8792   2.1997   3.1487

     occupation numbers 
     1.0000   1.0000   1.0000   1.0000

          k = 0.6000 0.0000 0.8000 (  1153 PWs)   bands (ev):

    -2.2392  -0.8474   1.7729   3.4212

     occupation numbers 
     1.0000   1.0000   1.0000   1.0000

          k =-0.2000-1.0000 0.0000 (  1156 PWs)   bands (ev):

    -1.6103  -1.5996   2.8672   2.8733

     occupation numbers 
     1.0000   1.0000   1.0000   1.0000

          k = 0.6000-0.2000 1.0000 (  1151 PWs)   bands (ev):

    -2.6510  -0.4029   2.1354   3.1401

     occupation numbers 
     1.0000   1.0000   1.0000   1.0000

          k = 0.5000-0.1000 0.9000 (  1148 PWs)   bands (ev):

    -2.1356  -0.9121   1.9770   2.8801

     occupation numbers 
     1.0000   1.0000   1.0000   1.0000

          k =-0.4000-1.0000 0.0000 (  1154 PWs)   bands (ev):

    -1.5132  -1.5019   2.3385   2.3452

     occupation numbers 
     1.0000   1.0000   1.0000   1.0000

          k =-0.1000-0.1000-0.1000 (  1179 PWs)   bands (ev):

    -5.6917   5.0253   5.9634   5.9634

     occupation numbers 
     1.0000   1.0000   1.0000   1.0000

          k =-0.2000-0.2000-0.2000 (  1167 PWs)   bands (ev):

    -5.3037   3.1495   5.5818   5.5818

     occupation numbers 
     1.0000   1.0000   1.0000   1.0000

          k =-0.3000-0.3000-0.3000 (  1155 PWs)   bands (ev):

    -4.6854   1.3540   5.2471   5.2471

     occupation numbers 
     1.0000   1.0000   1.0000   1.0000

          k =-0.4000-0.4000-0.4000 (  1149 PWs)   bands (ev):

    -3.9334  -0.1306   5.0354   5.0354

     occupation numbers 
     1.0000   1.0000   1.0000   1.0000

          k = 0.5000 0.5000 0.5000 (  1158 PWs)   bands (ev):

    -3.4770  -0.8346   4.9641   4.9641

     occupation numbers 
     1.0000   1.0000   1.0000   1.0000

          k = 0.3000 0.1000-0.1000 (  1164 PWs)   bands (ev):

    -5.3435   3.7044   5.1518   5.3168

     occupation numbers 
     1.0000   1.0000   1.0000   1.0000

          k =-0.3000-0.1000-0.1000 (  1164 PWs)   bands (ev):

    -5.3438   3.7148   5.1431   5.3137

     occupation numbers 
     1.0000   1.0000   1.0000   1.0000

          k = 0.4000 0.2000-0.2000 (  1159 PWs)   bands (ev):

    -4.7968   1.9333   4.8311   4.8796

     occupation numbers 
     1.0000   1.0000   1.0000   1.0000

          k =-0.4000-0.2000-0.2000 (  1159 PWs)   bands (ev):

    -4.7979   1.9435   4.8242   4.8768

     occupation numbers 
     1.0000   1.0000   1.0000   1.0000

          k = 0.5000 0.3000-0.3000 (  1150 PWs)   bands (ev):

    -4.0667   0.3495   4.4641   4.6855

     occupation numbers 
     1.0000   1.0000   1.0000   1.0000

          k =-0.5000-0.3000-0.3000 (  1150 PWs)   bands (ev):

    -4.0698   0.3610   4.4631   4.6781

     occupation numbers 
     1.0000   1.0000   1.0000   1.0000

          k =-0.4000-0.6000 0.6000 (  1158 PWs)   bands (ev):

    -3.4162  -0.6996   4.1717   4.7208

     occupation numbers 
     1.0000   1.0000   1.0000   1.0000

          k = 0.4000 0.6000 0.6000 (  1158 PWs)   bands (ev):

    -3.4231  -0.6843   4.1709   4.7132

     occupation numbers 
     1.0000   1.0000   1.0000   1.0000

          k =-0.3000-0.5000 0.5000 (  1157 PWs)   bands (ev):

    -3.5864  -0.4477   4.0415   4.9238

     occupation numbers 
     1.0000   1.0000   1.0000   1.0000

          k = 0.3000 0.5000 0.5000 (  1157 PWs)   bands (ev):

    -3.5922  -0.4332   4.0404   4.9155

     occupation numbers 
     1.0000   1.0000   1.0000   1.0000

          k =-0.2000-0.4000 0.4000 (  1144 PWs)   bands (ev):

    -4.3244   0.8458   4.1002   5.2622

     occupation numbers 
     1.0000   1.0000   1.0000   1.0000

          k = 0.2000 0.4000 0.4000 (  1144 PWs)   bands (ev):

    -4.3268   0.8580   4.0984   5.2525

     occupation numbers 
     1.0000   1.0000   1.0000   1.0000

          k =-0.1000-0.3000 0.3000 (  1156 PWs)   bands (ev):

    -5.0052   2.5048   4.3757   5.6725

     occupation numbers 
     1.0000   1.0000   1.0000   1.0000

          k = 0.1000 0.3000 0.3000 (  1156 PWs)   bands (ev):

    -5.0062   2.5173   4.3725   5.6605

     occupation numbers 
     1.0000   1.0000   1.0000   1.0000

          k = 0.0000-0.2000 0.2000 (  1165 PWs)   bands (ev):

    -5.4739   4.1233   4.9907   6.0028

     occupation numbers 
     1.0000   1.0000   1.0000   1.0000

          k = 0.5000 0.1000-0.1000 (  1146 PWs)   bands (ev):

    -4.6564   2.2911   4.1480   4.3204

     occupation numbers 
     1.0000   1.0000   1.0000   1.0000

          k =-0.5000-0.1000-0.1000 (  1146 PWs)   bands (ev):

    -4.6569   2.2985   4.1470   4.3135

     occupation numbers 
     1.0000   1.0000   1.0000   1.0000

          k = 0.6000 0.2000-0.2000 (  1156 PWs)   bands (ev):

    -3.9764   0.8427   3.5120   4.1608

     occupation numbers 
     1.0000   1.0000   1.0000   1.0000

          k =-0.6000-0.2000-0.2000 (  1156 PWs)   bands (ev):

    -3.9783   0.8525   3.5102   4.1543

     occupation numbers 
     1.0000   1.0000   1.0000   1.0000

          k =-0.3000-0.7000 0.7000 (  1143 PWs)   bands (ev):

    -3.2365  -0.3549   2.9980   4.2066

     occupation numbers 
     1.0000   1.0000   1.0000   1.0000

          k = 0.3000 0.7000 0.7000 (  1143 PWs)   bands (ev):

    -3.2420  -0.3411   2.9962   4.2000

     occupation numbers 
     1.0000   1.0000   1.0000   1.0000

          k =-0.2000-0.6000 0.6000 (  1163 PWs)   bands (ev):

    -3.0797  -0.5683   2.6961   4.4483

     occupation numbers 
     1.0000   1.0000   1.0000   1.0000

          k = 0.2000 0.6000 0.6000 (  1163 PWs)   bands (ev):

    -3.0870  -0.5521   2.6940   4.4410

     occupation numbers 
     1.0000   1.0000   1.0000   1.0000

          k =-0.1000-0.5000 0.5000 (  1150 PWs)   bands (ev):

    -3.7426   0.4301   2.6725   4.8507

     occupation numbers 
     1.0000   1.0000   1.0000   1.0000

          k = 0.1000 0.5000 0.5000 (  1150 PWs)   bands (ev):

    -3.7460   0.4435   2.6697   4.8418

     occupation numbers 
     1.0000   1.0000   1.0000   1.0000

          k = 0.0000-0.4000 0.4000 (  1151 PWs)   bands (ev):

    -4.4666   1.6767   3.1270   5.3272

     occupation numbers 
     1.0000   1.0000   1.0000   1.0000

          k = 0.7000 0.1000-0.1000 (  1149 PWs)   bands (ev):

    -3.6506   0.7433   3.2771   3.7187

     occupation numbers 
     1.0000   1.0000   1.0000   1.0000

          k =-0.7000-0.1000-0.1000 (  1149 PWs)   bands (ev):

    -3.6515   0.7477   3.2790   3.7126

     occupation numbers 
     1.0000   1.0000   1.0000   1.0000

          k =-0.2000-0.8000 0.8000 (  1146 PWs)   bands (ev):

    -2.8935  -0.2697   2.4327   3.7262

     occupation numbers 
     1.0000   1.0000   1.0000   1.0000

          k = 0.2000 0.8000 0.8000 (  1146 PWs)   bands (ev):

    -2.8973  -0.2606   2.4334   3.7201

     occupation numbers 
     1.0000   1.0000   1.0000   1.0000

          k =-0.1000-0.7000 0.7000 (  1150 PWs)   bands (ev):

    -2.4651  -0.7552   1.8715   3.9443

     occupation numbers 
     1.0000   1.0000   1.0000   1.0000

          k = 0.1000 0.7000 0.7000 (  1150 PWs)   bands (ev):

    -2.4736  -0.7403   1.8715   3.9377

     occupation numbers 
     1.0000   1.0000   1.0000   1.0000

          k = 0.0000-0.6000 0.6000 (  1145 PWs)   bands (ev):

    -3.0096  -0.1622   1.8452   4.3451

     occupation numbers 
     1.0000   1.0000   1.0000   1.0000

          k =-0.1000-0.9000 0.9000 (  1148 PWs)   bands (ev):

    -2.3649  -0.8580   2.8478   3.4082

     occupation numbers 
     1.0000   1.0000   1.0000   1.0000

          k = 0.1000 0.9000 0.9000 (  1148 PWs)   bands (ev):

    -2.3669  -0.8548   2.8524   3.4025

     occupation numbers 
     1.0000   1.0000   1.0000   1.0000

          k = 0.0000-0.8000 0.8000 (  1144 PWs)   bands (ev):

    -1.8769  -1.2872   2.0464   3.5772

     occupation numbers 
     1.0000   1.0000   1.0000   1.0000

          k = 0.4000 0.2000 0.0000 (  1154 PWs)   bands (ev):

    -4.9586   2.7921   4.0580   5.1857

     occupation numbers 
     1.0000   1.0000   1.0000   1.0000

          k = 0.5000 0.3000-0.1000 (  1150 PWs)   bands (ev):

    -4.3433   1.3702   3.4705   4.8058

     occupation numbers 
     1.0000   1.0000   1.0000   1.0000

          k =-0.5000-0.3000-0.1000 (  1150 PWs)   bands (ev):

    -4.3442   1.3776   3.4633   4.8071

     occupation numbers 
     1.0000   1.0000   1.0000   1.0000

          k = 0.1000 0.5000-0.3000 (  1150 PWs)   bands (ev):

    -4.3425   1.3660   3.4645   4.8184

     occupation numbers 
     1.0000   1.0000   1.0000   1.0000

          k =-0.4000-0.6000 0.8000 (  1149 PWs)   bands (ev):

    -3.5893  -0.0066   3.2419   4.4522

     occupation numbers 
     1.0000   1.0000   1.0000   1.0000

          k = 0.4000 0.6000 0.8000 (  1149 PWs)   bands (ev):

    -3.5927   0.0049   3.2334   4.4536

     occupation numbers 
     1.0000   1.0000   1.0000   1.0000

          k =-0.8000-0.4000 0.6000 (  1149 PWs)   bands (ev):

    -3.5883  -0.0085   3.2325   4.4648

     occupation numbers 
     1.0000   1.0000   1.0000   1.0000

          k = 0.3000 0.5000 0.7000 (  1156 PWs)   bands (ev):

    -3.1292  -0.6790   3.1745   4.3143

     occupation numbers 
     1.0000   1.0000   1.0000   1.0000

          k =-0.7000-0.3000 0.5000 (  1156 PWs)   bands (ev):

    -3.1213  -0.6955   3.1727   4.3258

     occupation numbers 
     1.0000   1.0000   1.0000   1.0000

          k = 0.6000 0.2000 0.0000 (  1152 PWs)   bands (ev):

    -4.1164   1.3968   3.3258   4.0586

     occupation numbers 
     1.0000   1.0000   1.0000   1.0000

          k =-0.3000-0.7000 0.9000 (  1158 PWs)   bands (ev):

    -3.3907   0.2860   2.7012   3.7248

     occupation numbers 
     1.0000   1.0000   1.0000   1.0000

          k = 0.3000 0.7000 0.9000 (  1158 PWs)   bands (ev):

    -3.3924   0.2927   2.6973   3.7241

     occupation numbers 
     1.0000   1.0000   1.0000   1.0000

          k =-0.9000-0.3000 0.7000 (  1158 PWs)   bands (ev):

    -3.3894   0.2819   2.6962   3.7343

     occupation numbers 
     1.0000   1.0000   1.0000   1.0000

          k =-0.2000-0.6000 0.8000 (  1158 PWs)   bands (ev):

    -2.7312  -0.5903   2.2887   3.6709

     occupation numbers 
     1.0000   1.0000   1.0000   1.0000

          k = 0.2000 0.6000 0.8000 (  1158 PWs)   bands (ev):

    -2.7376  -0.5765   2.2844   3.6680

     occupation numbers 
     1.0000   1.0000   1.0000   1.0000

          k =-0.8000-0.2000 0.6000 (  1158 PWs)   bands (ev):

    -2.7299  -0.5920   2.2834   3.6777

     occupation numbers 
     1.0000   1.0000   1.0000   1.0000

          k =-0.1000-0.5000 0.7000 (  1152 PWs)   bands (ev):

    -2.9341  -0.3303   2.1341   3.9167

     occupation numbers 
     1.0000   1.0000   1.0000   1.0000

          k = 0.1000 0.5000 0.7000 (  1152 PWs)   bands (ev):

    -2.9399  -0.3156   2.1305   3.9109

     occupation numbers 
     1.0000   1.0000   1.0000   1.0000

          k =-0.7000-0.1000 0.5000 (  1152 PWs)   bands (ev):

    -2.9339  -0.3299   2.1307   3.9200

     occupation numbers 
     1.0000   1.0000   1.0000   1.0000

          k = 0.0000-0.4000 0.6000 (  1149 PWs)   bands (ev):

    -3.6775   0.6264   2.4346   4.3657

     occupation numbers 
     1.0000   1.0000   1.0000   1.0000

          k =-0.2000-0.8000 1.0000 (  1162 PWs)   bands (ev):

    -2.9794  -0.0967   2.9126   3.2423

     occupation numbers 
     1.0000   1.0000   1.0000   1.0000

          k =-0.1000-0.7000 0.9000 (  1153 PWs)   bands (ev):

    -2.2332  -0.8770   2.1932   3.1531

     occupation numbers 
     1.0000   1.0000   1.0000   1.0000

          k = 0.1000 0.7000 0.9000 (  1153 PWs)   bands (ev):

    -2.2376  -0.8702   2.1955   3.1486

     occupation numbers 
     1.0000   1.0000   1.0000   1.0000

          k =-0.9000-0.1000 0.7000 (  1153 PWs)   bands (ev):

    -2.2312  -0.8802   2.1917   3.1563

     occupation numbers 
     1.0000   1.0000   1.0000   1.0000

          k = 0.0000-0.6000 0.8000 (  1153 PWs)   bands (ev):

    -2.2324  -0.8577   1.7697   3.4281

     occupation numbers 
     1.0000   1.0000   1.0000   1.0000

          k =-0.2000-0.6000 1.0000 (  1151 PWs)   bands (ev):

    -2.6550  -0.3938   2.1363   3.1334

     occupation numbers 
     1.0000   1.0000   1.0000   1.0000

          k = 0.1000 0.5000 0.9000 (  1148 PWs)   bands (ev):

    -2.1422  -0.9014   1.9749   2.8780

     occupation numbers 
     1.0000   1.0000   1.0000   1.0000

          k =-0.9000-0.1000 0.5000 (  1148 PWs)   bands (ev):

    -2.1327  -0.9158   1.9714   2.8870

     occupation numbers 
     1.0000   1.0000   1.0000   1.0000

     highest occupied level (ev):     6.1870

!    total energy              =     -22.67303173 Ry
     estimated scf accuracy    <          2.0E-11 Ry

     The total energy is the sum of the following terms:
     one-electron contribution =       5.13729572 Ry
     hartree contribution      =       1.07643912 Ry
     xc contribution           =     -12.08584432 Ry
     ewald contribution        =     -16.80092226 Ry

     convergence has been achieved in   5 iterations

     Forces acting on atoms (cartesian axes, Ry/au):

     atom    1 type  1   force =     0.00086556    0.00086556    0.00086556
     atom    2 type  1   force =    -0.00086556   -0.00086556   -0.00086556
     The non-local contrib.  to forces
     atom    1 type  1   force =     0.00091615    0.00091615    0.00091615
     atom    2 type  1   force =    -0.00091429   -0.00091429   -0.00091429
     The ionic contribution  to forces
     atom    1 type  1   force =     0.00155306    0.00155306    0.00155306
     atom    2 type  1   force =    -0.00155306   -0.00155306   -0.00155306
     The local contribution  to forces
     atom    1 type  1   force =    -0.00152011   -0.00152011   -0.00152011
     atom    2 type  1   force =     0.00151891    0.00151891    0.00151891
     The core correction contribution to forces
     atom    1 type  1   force =    -0.00008357   -0.00008357   -0.00008357
     atom    2 type  1   force =     0.00008327    0.00008327    0.00008327
     The Hubbard contrib.    to forces
     atom    1 type  1   force =     0.00000000    0.00000000    0.00000000
     atom    2 type  1   force =     0.00000000    0.00000000    0.00000000
     The SCF correction term to forces
     atom    1 type  1   force =     0.00000021    0.00000021    0.00000021
     atom    2 type  1   force =    -0.00000021   -0.00000021   -0.00000021

     Total force =     0.002120     Total SCF correction =     0.000001
     Energy error            =      1.6E-05 Ry
     Gradient error          =      8.7E-04 Ry/Bohr

     number of scf cycles    =   2
     number of bfgs steps    =   1

     energy             old  =     -22.6730161721 Ry
     energy             new  =     -22.6730317349 Ry

     CASE: energy            _new < energy            _old

     new trust radius        =       0.0027713845 bohr
     new conv_thr            =            1.0E-11 Ry


ATOMIC_POSITIONS (angstrom)
Si               0.0018445072        0.0018445072        0.0018445072
Si               1.3591554928        1.3591554928        1.3591554928



     Writing config-only to output data dir ./silicon.save/ :
     XML data file
     NEW-OLD atomic charge density approx. for the potential

     Check: negative core charge=   -0.000003

     total cpu time spent up to now is       16.8 secs

     Self-consistent Calculation

[...]

     occupation numbers 
     1.0000   1.0000   1.0000   1.0000

          k = 0.6000-0.4000 0.8000 (  1149 PWs)   bands (ev):

    -3.5897  -0.0049   3.2370   4.4570

     occupation numbers 
     1.0000   1.0000   1.0000   1.0000

          k = 0.5000-0.3000 0.7000 (  1156 PWs)   bands (ev):

    -3.1236  -0.6912   3.1780   4.3175

     occupation numbers 
     1.0000   1.0000   1.0000   1.0000

          k =-0.2000 0.6000 0.0000 (  1152 PWs)   bands (ev):

    -4.1158   1.3927   3.3265   4.0627

     occupation numbers 
     1.0000   1.0000   1.0000   1.0000

          k = 0.7000-0.3000 0.9000 (  1158 PWs)   bands (ev):

    -3.3905   0.2853   2.6999   3.7276

     occupation numbers 
     1.0000   1.0000   1.0000   1.0000

          k = 0.6000-0.2000 0.8000 (  1158 PWs)   bands (ev):

    -2.7324  -0.5876   2.2874   3.6712

     occupation numbers 
     1.0000   1.0000   1.0000   1.0000

          k = 0.5000-0.1000 0.7000 (  1152 PWs)   bands (ev):

    -2.9361  -0.3252   2.1330   3.9146

     occupation numbers 
     1.0000   1.0000   1.0000   1.0000

          k = 0.4000 0.0000 0.6000 (  1149 PWs)   bands (ev):

    -3.6786   0.6315   2.4342   4.3612

     occupation numbers 
     1.0000   1.0000   1.0000   1.0000

          k = 0.8000-0.2000 1.0000 (  1162 PWs)   bands (ev):

    -2.9785  -0.0992   2.9128   3.2444

     occupation numbers 
     1.0000   1.0000   1.0000   1.0000

          k = 0.7000-0.1000 0.9000 (  1153 PWs)   bands (ev):

    -2.2336  -0.8766   2.1950   3.1517

     occupation numbers 
     1.0000   1.0000   1.0000   1.0000

          k = 0.6000 0.0000 0.8000 (  1153 PWs)   bands (ev):

    -2.2357  -0.8527   1.7713   3.4247

     occupation numbers 
     1.0000   1.0000   1.0000   1.0000

          k =-0.2000-1.0000 0.0000 (  1156 PWs)   bands (ev):

    -1.6050  -1.6048   2.8702   2.8703

     occupation numbers 
     1.0000   1.0000   1.0000   1.0000

          k = 0.6000-0.2000 1.0000 (  1151 PWs)   bands (ev):

    -2.6530  -0.3983   2.1359   3.1367

     occupation numbers 
     1.0000   1.0000   1.0000   1.0000

          k = 0.5000-0.1000 0.9000 (  1148 PWs)   bands (ev):

    -2.1365  -0.9103   1.9751   2.8813

     occupation numbers 
     1.0000   1.0000   1.0000   1.0000

          k =-0.4000-1.0000 0.0000 (  1154 PWs)   bands (ev):

    -1.5076  -1.5074   2.3418   2.3419

     occupation numbers 
     1.0000   1.0000   1.0000   1.0000

          k =-0.1000-0.1000-0.1000 (  1179 PWs)   bands (ev):

    -5.6916   5.0140   5.9701   5.9701

     occupation numbers 
     1.0000   1.0000   1.0000   1.0000

          k =-0.2000-0.2000-0.2000 (  1167 PWs)   bands (ev):

    -5.3032   3.1408   5.5865   5.5865

     occupation numbers 
     1.0000   1.0000   1.0000   1.0000

          k =-0.3000-0.3000-0.3000 (  1155 PWs)   bands (ev):

    -4.6841   1.3457   5.2508   5.2508

     occupation numbers 
     1.0000   1.0000   1.0000   1.0000

          k =-0.4000-0.4000-0.4000 (  1149 PWs)   bands (ev):

    -3.9301  -0.1403   5.0385   5.0385

     occupation numbers 
     1.0000   1.0000   1.0000   1.0000

          k = 0.5000 0.5000 0.5000 (  1158 PWs)   bands (ev):

    -3.4712  -0.8467   4.9670   4.9670

     occupation numbers 
     1.0000   1.0000   1.0000   1.0000

          k = 0.3000 0.1000-0.1000 (  1164 PWs)   bands (ev):

    -5.3436   3.7060   5.1471   5.3200

     occupation numbers 
     1.0000   1.0000   1.0000   1.0000

          k =-0.3000-0.1000-0.1000 (  1164 PWs)   bands (ev):

    -5.3436   3.7058   5.1473   5.3200

     occupation numbers 
     1.0000   1.0000   1.0000   1.0000

          k = 0.4000 0.2000-0.2000 (  1159 PWs)   bands (ev):

    -4.7970   1.9353   4.8274   4.8818

     occupation numbers 
     1.0000   1.0000   1.0000   1.0000

          k =-0.4000-0.2000-0.2000 (  1159 PWs)   bands (ev):

    -4.7970   1.9351   4.8275   4.8819

     occupation numbers 
     1.0000   1.0000   1.0000   1.0000

          k = 0.5000 0.3000-0.3000 (  1150 PWs)   bands (ev):

    -4.0674   0.3520   4.4671   4.6809

     occupation numbers 
     1.0000   1.0000   1.0000   1.0000

          k =-0.5000-0.3000-0.3000 (  1150 PWs)   bands (ev):

    -4.0673   0.3519   4.4671   4.6810

     occupation numbers 
     1.0000   1.0000   1.0000   1.0000

          k =-0.4000-0.6000 0.6000 (  1158 PWs)   bands (ev):

    -3.4179  -0.6958   4.1742   4.7160

     occupation numbers 
     1.0000   1.0000   1.0000   1.0000

          k = 0.4000 0.6000 0.6000 (  1158 PWs)   bands (ev):

    -3.4178  -0.6961   4.1743   4.7161

     occupation numbers 
     1.0000   1.0000   1.0000   1.0000

          k =-0.3000-0.5000 0.5000 (  1157 PWs)   bands (ev):

    -3.5880  -0.4438   4.0436   4.9186

     occupation numbers 
     1.0000   1.0000   1.0000   1.0000

          k = 0.3000 0.5000 0.5000 (  1157 PWs)   bands (ev):

    -3.5879  -0.4440   4.0436   4.9188

     occupation numbers 
     1.0000   1.0000   1.0000   1.0000

          k =-0.2000-0.4000 0.4000 (  1144 PWs)   bands (ev):

    -4.3251   0.8494   4.1017   5.2565

     occupation numbers 
     1.0000   1.0000   1.0000   1.0000

          k = 0.2000 0.4000 0.4000 (  1144 PWs)   bands (ev):

    -4.3251   0.8492   4.1018   5.2566

     occupation numbers 
     1.0000   1.0000   1.0000   1.0000

          k =-0.1000-0.3000 0.3000 (  1156 PWs)   bands (ev):

    -5.0056   2.5091   4.3763   5.6658

     occupation numbers 
     1.0000   1.0000   1.0000   1.0000

          k = 0.1000 0.3000 0.3000 (  1156 PWs)   bands (ev):

    -5.0056   2.5089   4.3764   5.6660

     occupation numbers 
     1.0000   1.0000   1.0000   1.0000

          k = 0.0000-0.2000 0.2000 (  1165 PWs)   bands (ev):

    -5.4740   4.1294   4.9898   5.9951

     occupation numbers 
     1.0000   1.0000   1.0000   1.0000

          k = 0.5000 0.1000-0.1000 (  1146 PWs)   bands (ev):

    -4.6564   2.2918   4.1513   4.3167

     occupation numbers 
     1.0000   1.0000   1.0000   1.0000

          k =-0.5000-0.1000-0.1000 (  1146 PWs)   bands (ev):

    -4.6564   2.2917   4.1513   4.3168

     occupation numbers 
     1.0000   1.0000   1.0000   1.0000

          k = 0.6000 0.2000-0.2000 (  1156 PWs)   bands (ev):

    -3.9767   0.8442   3.5148   4.1571

     occupation numbers 
     1.0000   1.0000   1.0000   1.0000

          k =-0.6000-0.2000-0.2000 (  1156 PWs)   bands (ev):

    -3.9767   0.8440   3.5148   4.1573

     occupation numbers 
     1.0000   1.0000   1.0000   1.0000

          k =-0.3000-0.7000 0.7000 (  1143 PWs)   bands (ev):

    -3.2378  -0.3519   3.0001   4.2028

     occupation numbers 
     1.0000   1.0000   1.0000   1.0000

          k = 0.3000 0.7000 0.7000 (  1143 PWs)   bands (ev):

    -3.2377  -0.3521   3.0002   4.2029

     occupation numbers 
     1.0000   1.0000   1.0000   1.0000

          k =-0.2000-0.6000 0.6000 (  1163 PWs)   bands (ev):

    -3.0819  -0.5637   2.6976   4.4441

     occupation numbers 
     1.0000   1.0000   1.0000   1.0000

          k = 0.2000 0.6000 0.6000 (  1163 PWs)   bands (ev):

    -3.0818  -0.5640   2.6976   4.4443

     occupation numbers 
     1.0000   1.0000   1.0000   1.0000

          k =-0.1000-0.5000 0.5000 (  1150 PWs)   bands (ev):

    -3.7439   0.4349   2.6729   4.8458

     occupation numbers 
     1.0000   1.0000   1.0000   1.0000

          k = 0.1000 0.5000 0.5000 (  1150 PWs)   bands (ev):

    -3.7438   0.4347   2.6729   4.8460

     occupation numbers 
     1.0000   1.0000   1.0000   1.0000

          k = 0.0000-0.4000 0.4000 (  1151 PWs)   bands (ev):

    -4.4672   1.6822   3.1261   5.3214

     occupation numbers 
     1.0000   1.0000   1.0000   1.0000

          k = 0.7000 0.1000-0.1000 (  1149 PWs)   bands (ev):

    -3.6507   0.7436   3.2802   3.7155

     occupation numbers 
     1.0000   1.0000   1.0000   1.0000

          k =-0.7000-0.1000-0.1000 (  1149 PWs)   bands (ev):

    -3.6506   0.7435   3.2802   3.7156

     occupation numbers 
     1.0000   1.0000   1.0000   1.0000

          k =-0.2000-0.8000 0.8000 (  1146 PWs)   bands (ev):

    -2.8944  -0.2681   2.4354   3.7229

     occupation numbers 
     1.0000   1.0000   1.0000   1.0000

          k = 0.2000 0.8000 0.8000 (  1146 PWs)   bands (ev):

    -2.8943  -0.2683   2.4354   3.7230

     occupation numbers 
     1.0000   1.0000   1.0000   1.0000

          k =-0.1000-0.7000 0.7000 (  1150 PWs)   bands (ev):

    -2.4680  -0.7505   1.8732   3.9408

     occupation numbers 
     1.0000   1.0000   1.0000   1.0000

          k = 0.1000 0.7000 0.7000 (  1150 PWs)   bands (ev):

    -2.4678  -0.7508   1.8732   3.9409

     occupation numbers 
     1.0000   1.0000   1.0000   1.0000

          k = 0.0000-0.6000 0.6000 (  1145 PWs)   bands (ev):

    -3.0117  -0.1568   1.8456   4.3411

     occupation numbers 
     1.0000   1.0000   1.0000   1.0000

          k =-0.1000-0.9000 0.9000 (  1148 PWs)   bands (ev):

    -2.3653  -0.8575   2.8508   3.4052

     occupation numbers 
     1.0000   1.0000   1.0000   1.0000

          k = 0.1000 0.9000 0.9000 (  1148 PWs)   bands (ev):

    -2.3652  -0.8575   2.8508   3.4053

     occupation numbers 
     1.0000   1.0000   1.0000   1.0000

          k = 0.0000-0.8000 0.8000 (  1144 PWs)   bands (ev):

    -1.8816  -1.2818   2.0490   3.5740

     occupation numbers 
     1.0000   1.0000   1.0000   1.0000

          k = 0.4000 0.2000 0.0000 (  1154 PWs)   bands (ev):

    -4.9582   2.7867   4.0590   5.1917

     occupation numbers 
     1.0000   1.0000   1.0000   1.0000

          k = 0.5000 0.3000-0.1000 (  1150 PWs)   bands (ev):

    -4.3431   1.3695   3.4668   4.8117

     occupation numbers 
     1.0000   1.0000   1.0000   1.0000

          k =-0.5000-0.3000-0.1000 (  1150 PWs)   bands (ev):

    -4.3431   1.3694   3.4669   4.8117

     occupation numbers 
     1.0000   1.0000   1.0000   1.0000

          k = 0.1000 0.5000-0.3000 (  1150 PWs)   bands (ev):

    -4.3431   1.3696   3.4669   4.8115

     occupation numbers 
     1.0000   1.0000   1.0000   1.0000

          k =-0.4000-0.6000 0.8000 (  1149 PWs)   bands (ev):

    -3.5896  -0.0049   3.2369   4.4571

     occupation numbers 
     1.0000   1.0000   1.0000   1.0000

          k = 0.4000 0.6000 0.8000 (  1149 PWs)   bands (ev):

    -3.5896  -0.0051   3.2371   4.4571

     occupation numbers 
     1.0000   1.0000   1.0000   1.0000

          k =-0.8000-0.4000 0.6000 (  1149 PWs)   bands (ev):

    -3.5897  -0.0049   3.2371   4.4569

     occupation numbers 
     1.0000   1.0000   1.0000   1.0000

          k = 0.3000 0.5000 0.7000 (  1156 PWs)   bands (ev):

    -3.1235  -0.6915   3.1781   4.3175

     occupation numbers 
     1.0000   1.0000   1.0000   1.0000

          k =-0.7000-0.3000 0.5000 (  1156 PWs)   bands (ev):

    -3.1236  -0.6912   3.1781   4.3173

     occupation numbers 
     1.0000   1.0000   1.0000   1.0000

          k = 0.6000 0.2000 0.0000 (  1152 PWs)   bands (ev):

    -4.1158   1.3926   3.3265   4.0628

     occupation numbers 
     1.0000   1.0000   1.0000   1.0000

          k =-0.3000-0.7000 0.9000 (  1158 PWs)   bands (ev):

    -3.3904   0.2852   2.7000   3.7276

     occupation numbers 
     1.0000   1.0000   1.0000   1.0000

          k = 0.3000 0.7000 0.9000 (  1158 PWs)   bands (ev):

    -3.3904   0.2850   2.7001   3.7276

     occupation numbers 
     1.0000   1.0000   1.0000   1.0000

          k =-0.9000-0.3000 0.7000 (  1158 PWs)   bands (ev):

    -3.3905   0.2852   2.7001   3.7274

     occupation numbers 
     1.0000   1.0000   1.0000   1.0000

          k =-0.2000-0.6000 0.8000 (  1158 PWs)   bands (ev):

    -2.7324  -0.5876   2.2875   3.6711

     occupation numbers 
     1.0000   1.0000   1.0000   1.0000

          k = 0.2000 0.6000 0.8000 (  1158 PWs)   bands (ev):

    -2.7323  -0.5879   2.2876   3.6712

     occupation numbers 
     1.0000   1.0000   1.0000   1.0000

          k =-0.8000-0.2000 0.6000 (  1158 PWs)   bands (ev):

    -2.7324  -0.5876   2.2876   3.6710

     occupation numbers 
     1.0000   1.0000   1.0000   1.0000

          k =-0.1000-0.5000 0.7000 (  1152 PWs)   bands (ev):

    -2.9361  -0.3251   2.1330   3.9145

     occupation numbers 
     1.0000   1.0000   1.0000   1.0000

          k = 0.1000 0.5000 0.7000 (  1152 PWs)   bands (ev):

    -2.9360  -0.3253   2.1331   3.9145

     occupation numbers 
     1.0000   1.0000   1.0000   1.0000

          k =-0.7000-0.1000 0.5000 (  1152 PWs)   bands (ev):

    -2.9361  -0.3251   2.1331   3.9144

     occupation numbers 
     1.0000   1.0000   1.0000   1.0000

          k = 0.0000-0.4000 0.6000 (  1149 PWs)   bands (ev):

    -3.6786   0.6317   2.4342   4.3611

     occupation numbers 
     1.0000   1.0000   1.0000   1.0000

          k =-0.2000-0.8000 1.0000 (  1162 PWs)   bands (ev):

    -2.9784  -0.0993   2.9128   3.2444

     occupation numbers 
     1.0000   1.0000   1.0000   1.0000

          k =-0.1000-0.7000 0.9000 (  1153 PWs)   bands (ev):

    -2.2336  -0.8767   2.1951   3.1517

     occupation numbers 
     1.0000   1.0000   1.0000   1.0000

          k = 0.1000 0.7000 0.9000 (  1153 PWs)   bands (ev):

    -2.2335  -0.8768   2.1950   3.1517

     occupation numbers 
     1.0000   1.0000   1.0000   1.0000

          k =-0.9000-0.1000 0.7000 (  1153 PWs)   bands (ev):

    -2.2336  -0.8766   2.1951   3.1516

     occupation numbers 
     1.0000   1.0000   1.0000   1.0000

          k = 0.0000-0.6000 0.8000 (  1153 PWs)   bands (ev):

    -2.2358  -0.8525   1.7713   3.4246

     occupation numbers 
     1.0000   1.0000   1.0000   1.0000

          k =-0.2000-0.6000 1.0000 (  1151 PWs)   bands (ev):

    -2.6529  -0.3984   2.1359   3.1368

     occupation numbers 
     1.0000   1.0000   1.0000   1.0000

          k = 0.1000 0.5000 0.9000 (  1148 PWs)   bands (ev):

    -2.1364  -0.9105   1.9751   2.8813

     occupation numbers 
     1.0000   1.0000   1.0000   1.0000

          k =-0.9000-0.1000 0.5000 (  1148 PWs)   bands (ev):

    -2.1365  -0.9102   1.9752   2.8812

     occupation numbers 
     1.0000   1.0000   1.0000   1.0000

     highest occupied level (ev):     6.1711

!    total energy              =     -22.67303584 Ry
     estimated scf accuracy    <          1.3E-12 Ry

     The total energy is the sum of the following terms:
     one-electron contribution =       5.13730008 Ry
     hartree contribution      =       1.07643676 Ry
     xc contribution           =     -12.08584307 Ry
     ewald contribution        =     -16.80092960 Ry

     convergence has been achieved in   7 iterations

     Forces acting on atoms (cartesian axes, Ry/au):

     atom    1 type  1   force =    -0.00001102   -0.00001102   -0.00001102
     atom    2 type  1   force =     0.00001102    0.00001102    0.00001102
     The non-local contrib.  to forces
     atom    1 type  1   force =    -0.00001255   -0.00001255   -0.00001255
     atom    2 type  1   force =     0.00001646    0.00001646    0.00001646
     The ionic contribution  to forces
     atom    1 type  1   force =    -0.00002680   -0.00002680   -0.00002680
     atom    2 type  1   force =     0.00002680    0.00002680    0.00002680
     The local contribution  to forces
     atom    1 type  1   force =     0.00002387    0.00002387    0.00002387
     atom    2 type  1   force =    -0.00002651   -0.00002651   -0.00002651
     The core correction contribution to forces
     atom    1 type  1   force =     0.00000634    0.00000634    0.00000634
     atom    2 type  1   force =    -0.00000401   -0.00000401   -0.00000401
     The Hubbard contrib.    to forces
     atom    1 type  1   force =     0.00000000    0.00000000    0.00000000
     atom    2 type  1   force =     0.00000000    0.00000000    0.00000000
     The SCF correction term to forces
     atom    1 type  1   force =    -0.00000008   -0.00000008   -0.00000008
     atom    2 type  1   force =     0.00000008    0.00000008    0.00000008

     Total force =     0.000027     Total SCF correction =     0.000000
     Energy error            =      4.1E-06 Ry
     Gradient error          =      1.1E-05 Ry/Bohr

     bfgs converged in   3 scf cycles and   2 bfgs steps
     (criteria: energy <  1.0E-04 Ry, force <  1.0E-04 Ry/Bohr)

     End of BFGS Geometry Optimization

     Final energy             =     -22.6730358353 Ry

     File ./silicon.bfgs deleted, as requested
Begin final coordinates

ATOMIC_POSITIONS (angstrom)
Si               0.0018445072        0.0018445072        0.0018445072
Si               1.3591554928        1.3591554928        1.3591554928
End final coordinates



     Writing all to output data dir ./silicon.save/ :
     XML data file, charge density, pseudopotentials, collected wavefunctions

     init_run     :      0.65s CPU      0.68s WALL (       1 calls)
     electrons    :     23.74s CPU     24.10s WALL (       3 calls)
     update_pot   :      0.02s CPU      0.02s WALL (       2 calls)
     forces       :      0.23s CPU      0.24s WALL (       3 calls)

     Called by init_run:
     wfcinit      :      0.52s CPU      0.53s WALL (       1 calls)
     wfcinit:atom :      0.01s CPU      0.01s WALL (     116 calls)
     wfcinit:wfcr :      0.46s CPU      0.47s WALL (     116 calls)
     potinit      :      0.02s CPU      0.02s WALL (       1 calls)
     hinit0       :      0.09s CPU      0.10s WALL (       1 calls)

     Called by electrons:
     c_bands      :     20.43s CPU     20.75s WALL (      24 calls)
     sum_band     :      3.03s CPU      3.06s WALL (      24 calls)
     v_of_rho     :      0.19s CPU      0.19s WALL (      24 calls)
     v_h          :      0.01s CPU      0.01s WALL (      24 calls)
     v_xc         :      0.20s CPU      0.20s WALL (      27 calls)
     newd         :      0.11s CPU      0.12s WALL (      24 calls)
     mix_rho      :      0.02s CPU      0.02s WALL (      24 calls)

     Called by c_bands:
     init_us_2    :      0.74s CPU      0.76s WALL (    6032 calls)
     cegterg      :     19.51s CPU     19.80s WALL (    2784 calls)

     Called by sum_band:
     sum_band:wei :      0.00s CPU      0.00s WALL (      24 calls)
     sum_band:loo :      2.91s CPU      2.94s WALL (      24 calls)
     sum_band:buf :      0.02s CPU      0.02s WALL (    2784 calls)
     sum_band:ini :      0.35s CPU      0.35s WALL (    2784 calls)
     sum_band:cal :      0.22s CPU      0.22s WALL (    2784 calls)
     sum_band:bec :      0.00s CPU      0.01s WALL (    2784 calls)
     addusdens    :      0.09s CPU      0.10s WALL (      24 calls)
                                        0.00s GPU  (      24 calls)
     addusd:skk   :      0.00s CPU      0.00s WALL (      24 calls)
                                        0.00s GPU  (      24 calls)

     Called by *egterg:
     cdiaghg      :      0.16s CPU      0.17s WALL (   10981 calls)
     cegterg:over :      0.47s CPU      0.48s WALL (    8777 calls)
     cegterg:upda :      0.26s CPU      0.27s WALL (    8777 calls)
     cegterg:last :      0.58s CPU      0.60s WALL (    7430 calls)
     h_psi        :     17.38s CPU     17.64s WALL (   11677 calls)
     s_psi        :      0.66s CPU      0.67s WALL (   11677 calls)
     g_psi        :      0.10s CPU      0.10s WALL (    8777 calls)

     Called by h_psi:
     h_psi:calbec :      0.75s CPU      0.76s WALL (   11677 calls)
     vloc_psi     :     15.89s CPU     16.13s WALL (   11677 calls)
     add_vuspsi   :      0.66s CPU      0.67s WALL (   11677 calls)

     General routines
     calbec       :      1.05s CPU      1.06s WALL (   15853 calls)
     fft          :      0.09s CPU      0.09s WALL (     302 calls)
     ffts         :      0.01s CPU      0.01s WALL (      24 calls)
     fftw         :     16.73s CPU     16.97s WALL (   87048 calls)


     PWSCF        :     24.72s CPU     25.14s WALL


   This run was terminated on:  20:31:36  19Dec2024            

=------------------------------------------------------------------------------=
   JOB DONE.
=------------------------------------------------------------------------------=
