
     Program PWSCF v.7.3.1 starts on 22Dec2024 at 14:35:27 

     This program is part of the open-source Quantum ESPRESSO suite
     for quantum simulation of materials; please cite
         "P. Giannozzi et al., J. Phys.:Condens. Matter 21 395502 (2009);
         "P. Giannozzi et al., J. Phys.:Condens. Matter 29 465901 (2017);
         "P. Giannozzi et al., J. Chem. Phys. 152 154105 (2020);
          URL http://www.quantum-espresso.org", 
     in publications or presentations arising from this work. More details at
     http://www.quantum-espresso.org/quote

     Serial version
     108653 MiB available memory on the printing compute node when the environment starts

     Waiting for input...
     Reading input from standard input

     Current dimensions of program PWSCF are:
     Max number of different atomic species (ntypx) = 10
     Max number of k-points (npk) =  40000
     Max angular momentum in pseudopotentials (lmaxx) =  4
     Message from routine input:
     WARNING: "startingwfc" set to atomic+random may spoil restart


     G-vector sticks info
     --------------------
     sticks:   dense  smooth     PW     G-vecs:    dense   smooth      PW
     Sum         583     583    169                 9257     9257    1471

     Using Slab Decomposition



     bravais-lattice index     =            2
     lattice parameter (alat)  =      10.2600  a.u.
     unit-cell volume          =     270.0114 (a.u.)^3
     number of atoms/cell      =            2
     number of atomic types    =            1
     number of electrons       =         8.00
     number of Kohn-Sham states=           12
     kinetic-energy cutoff     =      40.0000  Ry
     charge density cutoff     =     160.0000  Ry
     Exchange-correlation= PBESOL
                           (   1   4  10   8   0   0   0)

     celldm(1)=  10.260000  celldm(2)=   0.000000  celldm(3)=   0.000000
     celldm(4)=   0.000000  celldm(5)=   0.000000  celldm(6)=   0.000000

     crystal axes: (cart. coord. in units of alat)
               a(1) = (  -0.500000   0.000000   0.500000 )  
               a(2) = (   0.000000   0.500000   0.500000 )  
               a(3) = (  -0.500000   0.500000   0.000000 )  

     reciprocal axes: (cart. coord. in units 2 pi/alat)
               b(1) = ( -1.000000 -1.000000  1.000000 )  
               b(2) = (  1.000000  1.000000  1.000000 )  
               b(3) = ( -1.000000  1.000000 -1.000000 )  


     PseudoPot. # 1 for Si read from file:
     ./Si_pbesol.upf
     MD5 check sum: fe77d7a5829557c21112a27752452c0f
     Pseudo is Ultrasoft + core correction, Zval =  4.0
     Generated using "atomic" code by A. Dal Corso  v.5.0.2 svn rev. 9415
     Using radial grid of 1141 points,  4 beta functions with: 
                l(1) =   0
                l(2) =   0
                l(3) =   1
                l(4) =   1
     Q(r) pseudized with 0 coefficients 


     atomic species   valence    mass     pseudopotential
     Si                4.00    28.08550     Si( 1.00)

     48 Sym. Ops., with inversion, found (24 have fractional translation)


                                    s                        frac. trans.

      isym =  1     identity                                     

 cryst.   s( 1) = (     1          0          0      )
                  (     0          1          0      )
                  (     0          0          1      )

 cart.    s( 1) = (  1.0000000  0.0000000  0.0000000 )
                  (  0.0000000  1.0000000  0.0000000 )
                  (  0.0000000  0.0000000  1.0000000 )


      isym =  2     180 deg rotation - cart. axis [0,0,1]        

 cryst.   s( 2) = (     0          1         -1      )
                  (     1          0         -1      )
                  (     0          0         -1      )

 cart.    s( 2) = ( -1.0000000  0.0000000  0.0000000 )
                  (  0.0000000 -1.0000000  0.0000000 )
                  (  0.0000000  0.0000000  1.0000000 )


      isym =  3     180 deg rotation - cart. axis [0,1,0]        

 cryst.   s( 3) = (    -1          0          0      )
                  (    -1          0          1      )
                  (    -1          1          0      )

 cart.    s( 3) = ( -1.0000000  0.0000000  0.0000000 )
                  (  0.0000000  1.0000000  0.0000000 )
                  (  0.0000000  0.0000000 -1.0000000 )


      isym =  4     180 deg rotation - cart. axis [1,0,0]        

 cryst.   s( 4) = (     0         -1          1      )
                  (     0         -1          0      )
                  (     1         -1          0      )

 cart.    s( 4) = (  1.0000000  0.0000000  0.0000000 )
                  (  0.0000000 -1.0000000  0.0000000 )
                  (  0.0000000  0.0000000 -1.0000000 )


      isym =  5     180 deg rotation - cart. axis [1,1,0]        

 cryst.   s( 5) = (     0         -1          0      )    f =(  0.2500000 )
                  (    -1          0          0      )       (  0.2500000 )
                  (     0          0         -1      )       (  0.2500000 )

 cart.    s( 5) = (  0.0000000  1.0000000  0.0000000 )    f =( -0.2500000 )
                  (  1.0000000  0.0000000  0.0000000 )       (  0.2500000 )
                  (  0.0000000  0.0000000 -1.0000000 )       (  0.2500000 )


      isym =  6     180 deg rotation - cart. axis [1,-1,0]       

 cryst.   s( 6) = (    -1          0          1      )    f =(  0.2500000 )
                  (     0         -1          1      )       (  0.2500000 )
                  (     0          0          1      )       (  0.2500000 )

 cart.    s( 6) = (  0.0000000 -1.0000000  0.0000000 )    f =( -0.2500000 )
                  ( -1.0000000  0.0000000  0.0000000 )       (  0.2500000 )
                  (  0.0000000  0.0000000 -1.0000000 )       (  0.2500000 )


      isym =  7      90 deg rotation - cart. axis [0,0,-1]       

 cryst.   s( 7) = (     0          1          0      )    f =(  0.2500000 )
                  (     0          1         -1      )       (  0.2500000 )
                  (    -1          1          0      )       (  0.2500000 )

 cart.    s( 7) = (  0.0000000  1.0000000  0.0000000 )    f =( -0.2500000 )
                  ( -1.0000000  0.0000000  0.0000000 )       (  0.2500000 )
                  (  0.0000000  0.0000000  1.0000000 )       (  0.2500000 )


      isym =  8      90 deg rotation - cart. axis [0,0,1]        

 cryst.   s( 8) = (     1          0         -1      )    f =(  0.2500000 )
                  (     1          0          0      )       (  0.2500000 )
                  (     1         -1          0      )       (  0.2500000 )

 cart.    s( 8) = (  0.0000000 -1.0000000  0.0000000 )    f =( -0.2500000 )
                  (  1.0000000  0.0000000  0.0000000 )       (  0.2500000 )
                  (  0.0000000  0.0000000  1.0000000 )       (  0.2500000 )


      isym =  9     180 deg rotation - cart. axis [1,0,1]        

 cryst.   s( 9) = (    -1          0          0      )    f =(  0.2500000 )
                  (     0          0         -1      )       (  0.2500000 )
                  (     0         -1          0      )       (  0.2500000 )

 cart.    s( 9) = (  0.0000000  0.0000000  1.0000000 )    f =( -0.2500000 )
                  (  0.0000000 -1.0000000  0.0000000 )       (  0.2500000 )
                  (  1.0000000  0.0000000  0.0000000 )       (  0.2500000 )


      isym = 10     180 deg rotation - cart. axis [-1,0,1]       

 cryst.   s(10) = (     1          0          0      )    f =(  0.2500000 )
                  (     1         -1          0      )       (  0.2500000 )
                  (     1          0         -1      )       (  0.2500000 )

 cart.    s(10) = (  0.0000000  0.0000000 -1.0000000 )    f =( -0.2500000 )
                  (  0.0000000 -1.0000000  0.0000000 )       (  0.2500000 )
                  ( -1.0000000  0.0000000  0.0000000 )       (  0.2500000 )


      isym = 11      90 deg rotation - cart. axis [0,1,0]        

 cryst.   s(11) = (     0          1         -1      )    f =(  0.2500000 )
                  (    -1          1          0      )       (  0.2500000 )
                  (     0          1          0      )       (  0.2500000 )

 cart.    s(11) = (  0.0000000  0.0000000  1.0000000 )    f =( -0.2500000 )
                  (  0.0000000  1.0000000  0.0000000 )       (  0.2500000 )
                  ( -1.0000000  0.0000000  0.0000000 )       (  0.2500000 )


      isym = 12      90 deg rotation - cart. axis [0,-1,0]       

 cryst.   s(12) = (     0         -1          1      )    f =(  0.2500000 )
                  (     0          0          1      )       (  0.2500000 )
                  (    -1          0          1      )       (  0.2500000 )

 cart.    s(12) = (  0.0000000  0.0000000 -1.0000000 )    f =( -0.2500000 )
                  (  0.0000000  1.0000000  0.0000000 )       (  0.2500000 )
                  (  1.0000000  0.0000000  0.0000000 )       (  0.2500000 )


      isym = 13     180 deg rotation - cart. axis [0,1,1]        

 cryst.   s(13) = (    -1          1          0      )    f =(  0.2500000 )
                  (     0          1          0      )       (  0.2500000 )
                  (     0          1         -1      )       (  0.2500000 )

 cart.    s(13) = ( -1.0000000  0.0000000  0.0000000 )    f =( -0.2500000 )
                  (  0.0000000  0.0000000  1.0000000 )       (  0.2500000 )
                  (  0.0000000  1.0000000  0.0000000 )       (  0.2500000 )


      isym = 14     180 deg rotation - cart. axis [0,1,-1]       

 cryst.   s(14) = (     0          0         -1      )    f =(  0.2500000 )
                  (     0         -1          0      )       (  0.2500000 )
                  (    -1          0          0      )       (  0.2500000 )

 cart.    s(14) = ( -1.0000000  0.0000000  0.0000000 )    f =( -0.2500000 )
                  (  0.0000000  0.0000000 -1.0000000 )       (  0.2500000 )
                  (  0.0000000 -1.0000000  0.0000000 )       (  0.2500000 )


      isym = 15      90 deg rotation - cart. axis [-1,0,0]       

 cryst.   s(15) = (     0          0          1      )    f =(  0.2500000 )
                  (    -1          0          1      )       (  0.2500000 )
                  (     0         -1          1      )       (  0.2500000 )

 cart.    s(15) = (  1.0000000  0.0000000  0.0000000 )    f =( -0.2500000 )
                  (  0.0000000  0.0000000  1.0000000 )       (  0.2500000 )
                  (  0.0000000 -1.0000000  0.0000000 )       (  0.2500000 )


      isym = 16      90 deg rotation - cart. axis [1,0,0]        

 cryst.   s(16) = (     1         -1          0      )    f =(  0.2500000 )
                  (     1          0         -1      )       (  0.2500000 )
                  (     1          0          0      )       (  0.2500000 )

 cart.    s(16) = (  1.0000000  0.0000000  0.0000000 )    f =( -0.2500000 )
                  (  0.0000000  0.0000000 -1.0000000 )       (  0.2500000 )
                  (  0.0000000  1.0000000  0.0000000 )       (  0.2500000 )


      isym = 17     120 deg rotation - cart. axis [-1,-1,-1]     

 cryst.   s(17) = (    -1          0          1      )
                  (    -1          1          0      )
                  (    -1          0          0      )

 cart.    s(17) = (  0.0000000  1.0000000  0.0000000 )
                  (  0.0000000  0.0000000  1.0000000 )
                  (  1.0000000  0.0000000  0.0000000 )


      isym = 18     120 deg rotation - cart. axis [-1,1,1]       

 cryst.   s(18) = (     0          1          0      )
                  (     0          0          1      )
                  (     1          0          0      )

 cart.    s(18) = (  0.0000000 -1.0000000  0.0000000 )
                  (  0.0000000  0.0000000  1.0000000 )
                  ( -1.0000000  0.0000000  0.0000000 )


      isym = 19     120 deg rotation - cart. axis [1,1,-1]       

 cryst.   s(19) = (     1          0         -1      )
                  (     0          0         -1      )
                  (     0          1         -1      )

 cart.    s(19) = (  0.0000000  1.0000000  0.0000000 )
                  (  0.0000000  0.0000000 -1.0000000 )
                  ( -1.0000000  0.0000000  0.0000000 )


      isym = 20     120 deg rotation - cart. axis [1,-1,1]       

 cryst.   s(20) = (     0         -1          0      )
                  (     1         -1          0      )
                  (     0         -1          1      )

 cart.    s(20) = (  0.0000000 -1.0000000  0.0000000 )
                  (  0.0000000  0.0000000 -1.0000000 )
                  (  1.0000000  0.0000000  0.0000000 )


      isym = 21     120 deg rotation - cart. axis [1,1,1]        

 cryst.   s(21) = (     0          0         -1      )
                  (     0          1         -1      )
                  (     1          0         -1      )

 cart.    s(21) = (  0.0000000  0.0000000  1.0000000 )
                  (  1.0000000  0.0000000  0.0000000 )
                  (  0.0000000  1.0000000  0.0000000 )


      isym = 22     120 deg rotation - cart. axis [-1,1,-1]      

 cryst.   s(22) = (    -1          1          0      )
                  (    -1          0          0      )
                  (    -1          0          1      )

 cart.    s(22) = (  0.0000000  0.0000000  1.0000000 )
                  ( -1.0000000  0.0000000  0.0000000 )
                  (  0.0000000 -1.0000000  0.0000000 )


      isym = 23     120 deg rotation - cart. axis [1,-1,-1]      

 cryst.   s(23) = (     0          0          1      )
                  (     1          0          0      )
                  (     0          1          0      )

 cart.    s(23) = (  0.0000000  0.0000000 -1.0000000 )
                  ( -1.0000000  0.0000000  0.0000000 )
                  (  0.0000000  1.0000000  0.0000000 )


      isym = 24     120 deg rotation - cart. axis [-1,-1,1]      

 cryst.   s(24) = (     1         -1          0      )
                  (     0         -1          1      )
                  (     0         -1          0      )

 cart.    s(24) = (  0.0000000  0.0000000 -1.0000000 )
                  (  1.0000000  0.0000000  0.0000000 )
                  (  0.0000000 -1.0000000  0.0000000 )


      isym = 25     inversion                                    

 cryst.   s(25) = (    -1          0          0      )    f =(  0.2500000 )
                  (     0         -1          0      )       (  0.2500000 )
                  (     0          0         -1      )       (  0.2500000 )

 cart.    s(25) = ( -1.0000000  0.0000000  0.0000000 )    f =( -0.2500000 )
                  (  0.0000000 -1.0000000  0.0000000 )       (  0.2500000 )
                  (  0.0000000  0.0000000 -1.0000000 )       (  0.2500000 )


      isym = 26     inv. 180 deg rotation - cart. axis [0,0,1]   

 cryst.   s(26) = (     0         -1          1      )    f =(  0.2500000 )
                  (    -1          0          1      )       (  0.2500000 )
                  (     0          0          1      )       (  0.2500000 )

 cart.    s(26) = (  1.0000000  0.0000000  0.0000000 )    f =( -0.2500000 )
                  (  0.0000000  1.0000000  0.0000000 )       (  0.2500000 )
                  (  0.0000000  0.0000000 -1.0000000 )       (  0.2500000 )


      isym = 27     inv. 180 deg rotation - cart. axis [0,1,0]   

 cryst.   s(27) = (     1          0          0      )    f =(  0.2500000 )
                  (     1          0         -1      )       (  0.2500000 )
                  (     1         -1          0      )       (  0.2500000 )

 cart.    s(27) = (  1.0000000  0.0000000  0.0000000 )    f =( -0.2500000 )
                  (  0.0000000 -1.0000000  0.0000000 )       (  0.2500000 )
                  (  0.0000000  0.0000000  1.0000000 )       (  0.2500000 )


      isym = 28     inv. 180 deg rotation - cart. axis [1,0,0]   

 cryst.   s(28) = (     0          1         -1      )    f =(  0.2500000 )
                  (     0          1          0      )       (  0.2500000 )
                  (    -1          1          0      )       (  0.2500000 )

 cart.    s(28) = ( -1.0000000  0.0000000  0.0000000 )    f =( -0.2500000 )
                  (  0.0000000  1.0000000  0.0000000 )       (  0.2500000 )
                  (  0.0000000  0.0000000  1.0000000 )       (  0.2500000 )


      isym = 29     inv. 180 deg rotation - cart. axis [1,1,0]   

 cryst.   s(29) = (     0          1          0      )
                  (     1          0          0      )
                  (     0          0          1      )

 cart.    s(29) = (  0.0000000 -1.0000000  0.0000000 )
                  ( -1.0000000  0.0000000  0.0000000 )
                  (  0.0000000  0.0000000  1.0000000 )


      isym = 30     inv. 180 deg rotation - cart. axis [1,-1,0]  

 cryst.   s(30) = (     1          0         -1      )
                  (     0          1         -1      )
                  (     0          0         -1      )

 cart.    s(30) = (  0.0000000  1.0000000  0.0000000 )
                  (  1.0000000  0.0000000  0.0000000 )
                  (  0.0000000  0.0000000  1.0000000 )


      isym = 31     inv.  90 deg rotation - cart. axis [0,0,-1]  

 cryst.   s(31) = (     0         -1          0      )
                  (     0         -1          1      )
                  (     1         -1          0      )

 cart.    s(31) = (  0.0000000 -1.0000000  0.0000000 )
                  (  1.0000000  0.0000000  0.0000000 )
                  (  0.0000000  0.0000000 -1.0000000 )


      isym = 32     inv.  90 deg rotation - cart. axis [0,0,1]   

 cryst.   s(32) = (    -1          0          1      )
                  (    -1          0          0      )
                  (    -1          1          0      )

 cart.    s(32) = (  0.0000000  1.0000000  0.0000000 )
                  ( -1.0000000  0.0000000  0.0000000 )
                  (  0.0000000  0.0000000 -1.0000000 )


      isym = 33     inv. 180 deg rotation - cart. axis [1,0,1]   

 cryst.   s(33) = (     1          0          0      )
                  (     0          0          1      )
                  (     0          1          0      )

 cart.    s(33) = (  0.0000000  0.0000000 -1.0000000 )
                  (  0.0000000  1.0000000  0.0000000 )
                  ( -1.0000000  0.0000000  0.0000000 )


      isym = 34     inv. 180 deg rotation - cart. axis [-1,0,1]  

 cryst.   s(34) = (    -1          0          0      )
                  (    -1          1          0      )
                  (    -1          0          1      )

 cart.    s(34) = (  0.0000000  0.0000000  1.0000000 )
                  (  0.0000000  1.0000000  0.0000000 )
                  (  1.0000000  0.0000000  0.0000000 )


      isym = 35     inv.  90 deg rotation - cart. axis [0,1,0]   

 cryst.   s(35) = (     0         -1          1      )
                  (     1         -1          0      )
                  (     0         -1          0      )

 cart.    s(35) = (  0.0000000  0.0000000 -1.0000000 )
                  (  0.0000000 -1.0000000  0.0000000 )
                  (  1.0000000  0.0000000  0.0000000 )


      isym = 36     inv.  90 deg rotation - cart. axis [0,-1,0]  

 cryst.   s(36) = (     0          1         -1      )
                  (     0          0         -1      )
                  (     1          0         -1      )

 cart.    s(36) = (  0.0000000  0.0000000  1.0000000 )
                  (  0.0000000 -1.0000000  0.0000000 )
                  ( -1.0000000  0.0000000  0.0000000 )


      isym = 37     inv. 180 deg rotation - cart. axis [0,1,1]   

 cryst.   s(37) = (     1         -1          0      )
                  (     0         -1          0      )
                  (     0         -1          1      )

 cart.    s(37) = (  1.0000000  0.0000000  0.0000000 )
                  (  0.0000000  0.0000000 -1.0000000 )
                  (  0.0000000 -1.0000000  0.0000000 )


      isym = 38     inv. 180 deg rotation - cart. axis [0,1,-1]  

 cryst.   s(38) = (     0          0          1      )
                  (     0          1          0      )
                  (     1          0          0      )

 cart.    s(38) = (  1.0000000  0.0000000  0.0000000 )
                  (  0.0000000  0.0000000  1.0000000 )
                  (  0.0000000  1.0000000  0.0000000 )


      isym = 39     inv.  90 deg rotation - cart. axis [-1,0,0]  

 cryst.   s(39) = (     0          0         -1      )
                  (     1          0         -1      )
                  (     0          1         -1      )

 cart.    s(39) = ( -1.0000000  0.0000000  0.0000000 )
                  (  0.0000000  0.0000000 -1.0000000 )
                  (  0.0000000  1.0000000  0.0000000 )


      isym = 40     inv.  90 deg rotation - cart. axis [1,0,0]   

 cryst.   s(40) = (    -1          1          0      )
                  (    -1          0          1      )
                  (    -1          0          0      )

 cart.    s(40) = ( -1.0000000  0.0000000  0.0000000 )
                  (  0.0000000  0.0000000  1.0000000 )
                  (  0.0000000 -1.0000000  0.0000000 )


      isym = 41     inv. 120 deg rotation - cart. axis [-1,-1,-1]

 cryst.   s(41) = (     1          0         -1      )    f =(  0.2500000 )
                  (     1         -1          0      )       (  0.2500000 )
                  (     1          0          0      )       (  0.2500000 )

 cart.    s(41) = (  0.0000000 -1.0000000  0.0000000 )    f =( -0.2500000 )
                  (  0.0000000  0.0000000 -1.0000000 )       (  0.2500000 )
                  ( -1.0000000  0.0000000  0.0000000 )       (  0.2500000 )


      isym = 42     inv. 120 deg rotation - cart. axis [-1,1,1]  

 cryst.   s(42) = (     0         -1          0      )    f =(  0.2500000 )
                  (     0          0         -1      )       (  0.2500000 )
                  (    -1          0          0      )       (  0.2500000 )

 cart.    s(42) = (  0.0000000  1.0000000  0.0000000 )    f =( -0.2500000 )
                  (  0.0000000  0.0000000 -1.0000000 )       (  0.2500000 )
                  (  1.0000000  0.0000000  0.0000000 )       (  0.2500000 )


      isym = 43     inv. 120 deg rotation - cart. axis [1,1,-1]  

 cryst.   s(43) = (    -1          0          1      )    f =(  0.2500000 )
                  (     0          0          1      )       (  0.2500000 )
                  (     0         -1          1      )       (  0.2500000 )

 cart.    s(43) = (  0.0000000 -1.0000000  0.0000000 )    f =( -0.2500000 )
                  (  0.0000000  0.0000000  1.0000000 )       (  0.2500000 )
                  (  1.0000000  0.0000000  0.0000000 )       (  0.2500000 )


      isym = 44     inv. 120 deg rotation - cart. axis [1,-1,1]  

 cryst.   s(44) = (     0          1          0      )    f =(  0.2500000 )
                  (    -1          1          0      )       (  0.2500000 )
                  (     0          1         -1      )       (  0.2500000 )

 cart.    s(44) = (  0.0000000  1.0000000  0.0000000 )    f =( -0.2500000 )
                  (  0.0000000  0.0000000  1.0000000 )       (  0.2500000 )
                  ( -1.0000000  0.0000000  0.0000000 )       (  0.2500000 )


      isym = 45     inv. 120 deg rotation - cart. axis [1,1,1]   

 cryst.   s(45) = (     0          0          1      )    f =(  0.2500000 )
                  (     0         -1          1      )       (  0.2500000 )
                  (    -1          0          1      )       (  0.2500000 )

 cart.    s(45) = (  0.0000000  0.0000000 -1.0000000 )    f =( -0.2500000 )
                  ( -1.0000000  0.0000000  0.0000000 )       (  0.2500000 )
                  (  0.0000000 -1.0000000  0.0000000 )       (  0.2500000 )


      isym = 46     inv. 120 deg rotation - cart. axis [-1,1,-1] 

 cryst.   s(46) = (     1         -1          0      )    f =(  0.2500000 )
                  (     1          0          0      )       (  0.2500000 )
                  (     1          0         -1      )       (  0.2500000 )

 cart.    s(46) = (  0.0000000  0.0000000 -1.0000000 )    f =( -0.2500000 )
                  (  1.0000000  0.0000000  0.0000000 )       (  0.2500000 )
                  (  0.0000000  1.0000000  0.0000000 )       (  0.2500000 )


      isym = 47     inv. 120 deg rotation - cart. axis [1,-1,-1] 

 cryst.   s(47) = (     0          0         -1      )    f =(  0.2500000 )
                  (    -1          0          0      )       (  0.2500000 )
                  (     0         -1          0      )       (  0.2500000 )

 cart.    s(47) = (  0.0000000  0.0000000  1.0000000 )    f =( -0.2500000 )
                  (  1.0000000  0.0000000  0.0000000 )       (  0.2500000 )
                  (  0.0000000 -1.0000000  0.0000000 )       (  0.2500000 )


      isym = 48     inv. 120 deg rotation - cart. axis [-1,-1,1] 

 cryst.   s(48) = (    -1          1          0      )    f =(  0.2500000 )
                  (     0          1         -1      )       (  0.2500000 )
                  (     0          1          0      )       (  0.2500000 )

 cart.    s(48) = (  0.0000000  0.0000000  1.0000000 )    f =( -0.2500000 )
                  ( -1.0000000  0.0000000  0.0000000 )       (  0.2500000 )
                  (  0.0000000  1.0000000  0.0000000 )       (  0.2500000 )


     point group O_h (m-3m) 
     there are 10 classes
     the character table:

       E     8C3   3C2   6C4   6C2'  i     8S6   3s_h  6S4   6s_d 
A_1g   1.00  1.00  1.00  1.00  1.00  1.00  1.00  1.00  1.00  1.00
A_2g   1.00  1.00  1.00 -1.00 -1.00  1.00  1.00  1.00 -1.00 -1.00
E_g    2.00 -1.00  2.00  0.00  0.00  2.00 -1.00  2.00  0.00  0.00
T_1g   3.00  0.00 -1.00  1.00 -1.00  3.00  0.00 -1.00  1.00 -1.00
T_2g   3.00  0.00 -1.00 -1.00  1.00  3.00  0.00 -1.00 -1.00  1.00
A_1u   1.00  1.00  1.00  1.00  1.00 -1.00 -1.00 -1.00 -1.00 -1.00
A_2u   1.00  1.00  1.00 -1.00 -1.00 -1.00 -1.00 -1.00  1.00  1.00
E_u    2.00 -1.00  2.00  0.00  0.00 -2.00  1.00 -2.00  0.00  0.00
T_1u   3.00  0.00 -1.00  1.00 -1.00 -3.00  0.00  1.00 -1.00  1.00
T_2u   3.00  0.00 -1.00 -1.00  1.00 -3.00  0.00  1.00  1.00 -1.00

     the symmetry operations in each class and the name of the first element:

     E        1
          identity                                               
     8C3     17   19   20   18   24   21   22   23
          120 deg rotation - cart. axis [-1,-1,-1]               
     3C2      2    4    3
          180 deg rotation - cart. axis [0,0,1]                  
     6C4      7    8   15   16   12   11
           90 deg rotation - cart. axis [0,0,-1]                 
     6C2'     5    6   14   13   10    9
          180 deg rotation - cart. axis [1,1,0]                  
     i       25
          inversion                                              
     8S6     41   43   44   42   48   45   46   47
          inv. 120 deg rotation - cart. axis [-1,-1,-1]          
     3s_h    26   28   27
          inv. 180 deg rotation - cart. axis [0,0,1]             
     6S4     31   32   39   40   36   35
          inv.  90 deg rotation - cart. axis [0,0,-1]            
     6s_d    29   30   38   37   34   33
          inv. 180 deg rotation - cart. axis [1,1,0]             

   Cartesian axes

     site n.     atom                  positions (alat units)
         1        Si     tau(   1) = (   0.0000000   0.0000000   0.0000000  )
         2        Si     tau(   2) = (   0.2500000   0.2500000   0.2500000  )

   Crystallographic axes

     site n.     atom                  positions (cryst. coord.)
         1        Si     tau(   1) = (  0.0000000  0.0000000  0.0000000  )
         2        Si     tau(   2) = ( -0.2500000  0.7500000 -0.2500000  )

     number of k points=   147
                       cart. coord. in units 2pi/alat
        k(    1) = (  -0.5000000   0.5000000   0.5000000), wk =   0.0136054
        k(    2) = (  -0.4800000   0.4800000   0.4800000), wk =   0.0136054
        k(    3) = (  -0.4600000   0.4600000   0.4600000), wk =   0.0136054
        k(    4) = (  -0.4400000   0.4400000   0.4400000), wk =   0.0136054
        k(    5) = (  -0.4200000   0.4200000   0.4200000), wk =   0.0136054
        k(    6) = (  -0.4000000   0.4000000   0.4000000), wk =   0.0136054
        k(    7) = (  -0.3800000   0.3800000   0.3800000), wk =   0.0136054
        k(    8) = (  -0.3600000   0.3600000   0.3600000), wk =   0.0136054
        k(    9) = (  -0.3400000   0.3400000   0.3400000), wk =   0.0136054
        k(   10) = (  -0.3200000   0.3200000   0.3200000), wk =   0.0136054
        k(   11) = (  -0.3000000   0.3000000   0.3000000), wk =   0.0136054
        k(   12) = (  -0.2800000   0.2800000   0.2800000), wk =   0.0136054
        k(   13) = (  -0.2600000   0.2600000   0.2600000), wk =   0.0136054
        k(   14) = (  -0.2400000   0.2400000   0.2400000), wk =   0.0136054
        k(   15) = (  -0.2200000   0.2200000   0.2200000), wk =   0.0136054
        k(   16) = (  -0.2000000   0.2000000   0.2000000), wk =   0.0136054
        k(   17) = (  -0.1800000   0.1800000   0.1800000), wk =   0.0136054
        k(   18) = (  -0.1600000   0.1600000   0.1600000), wk =   0.0136054
        k(   19) = (  -0.1400000   0.1400000   0.1400000), wk =   0.0136054
        k(   20) = (  -0.1200000   0.1200000   0.1200000), wk =   0.0136054
        k(   21) = (  -0.1000000   0.1000000   0.1000000), wk =   0.0136054
        k(   22) = (  -0.0800000   0.0800000   0.0800000), wk =   0.0136054
        k(   23) = (  -0.0600000   0.0600000   0.0600000), wk =   0.0136054
        k(   24) = (  -0.0400000   0.0400000   0.0400000), wk =   0.0136054
        k(   25) = (  -0.0200000   0.0200000   0.0200000), wk =   0.0136054
        k(   26) = (   0.0000000   0.0000000   0.0000000), wk =   0.0136054
        k(   27) = (  -0.0166667   0.0000000   0.0000000), wk =   0.0136054
        k(   28) = (  -0.0333333   0.0000000   0.0000000), wk =   0.0136054
        k(   29) = (  -0.0500000   0.0000000   0.0000000), wk =   0.0136054
        k(   30) = (  -0.0666667   0.0000000   0.0000000), wk =   0.0136054
        k(   31) = (  -0.0833333   0.0000000   0.0000000), wk =   0.0136054
        k(   32) = (  -0.1000000   0.0000000   0.0000000), wk =   0.0136054
        k(   33) = (  -0.1166667   0.0000000   0.0000000), wk =   0.0136054
        k(   34) = (  -0.1333333   0.0000000   0.0000000), wk =   0.0136054
        k(   35) = (  -0.1500000   0.0000000   0.0000000), wk =   0.0136054
        k(   36) = (  -0.1666667   0.0000000   0.0000000), wk =   0.0136054
        k(   37) = (  -0.1833333   0.0000000   0.0000000), wk =   0.0136054
        k(   38) = (  -0.2000000   0.0000000   0.0000000), wk =   0.0136054
        k(   39) = (  -0.2166667   0.0000000   0.0000000), wk =   0.0136054
        k(   40) = (  -0.2333333   0.0000000   0.0000000), wk =   0.0136054
        k(   41) = (  -0.2500000   0.0000000   0.0000000), wk =   0.0136054
        k(   42) = (  -0.2666667   0.0000000   0.0000000), wk =   0.0136054
        k(   43) = (  -0.2833333   0.0000000   0.0000000), wk =   0.0136054
        k(   44) = (  -0.3000000   0.0000000   0.0000000), wk =   0.0136054
        k(   45) = (  -0.3166667   0.0000000   0.0000000), wk =   0.0136054
        k(   46) = (  -0.3333333   0.0000000   0.0000000), wk =   0.0136054
        k(   47) = (  -0.3500000   0.0000000   0.0000000), wk =   0.0136054
        k(   48) = (  -0.3666667   0.0000000   0.0000000), wk =   0.0136054
        k(   49) = (  -0.3833333   0.0000000   0.0000000), wk =   0.0136054
        k(   50) = (  -0.4000000   0.0000000   0.0000000), wk =   0.0136054
        k(   51) = (  -0.4166667   0.0000000   0.0000000), wk =   0.0136054
        k(   52) = (  -0.4333333   0.0000000   0.0000000), wk =   0.0136054
        k(   53) = (  -0.4500000   0.0000000   0.0000000), wk =   0.0136054
        k(   54) = (  -0.4666667   0.0000000   0.0000000), wk =   0.0136054
        k(   55) = (  -0.4833333   0.0000000   0.0000000), wk =   0.0136054
        k(   56) = (  -0.5000000   0.0000000   0.0000000), wk =   0.0136054
        k(   57) = (  -0.5166667   0.0000000   0.0000000), wk =   0.0136054
        k(   58) = (  -0.5333333   0.0000000   0.0000000), wk =   0.0136054
        k(   59) = (  -0.5500000   0.0000000   0.0000000), wk =   0.0136054
        k(   60) = (  -0.5666667   0.0000000   0.0000000), wk =   0.0136054
        k(   61) = (  -0.5833333   0.0000000   0.0000000), wk =   0.0136054
        k(   62) = (  -0.6000000   0.0000000   0.0000000), wk =   0.0136054
        k(   63) = (  -0.6166667   0.0000000   0.0000000), wk =   0.0136054
        k(   64) = (  -0.6333333   0.0000000   0.0000000), wk =   0.0136054
        k(   65) = (  -0.6500000   0.0000000   0.0000000), wk =   0.0136054
        k(   66) = (  -0.6666667   0.0000000   0.0000000), wk =   0.0136054
        k(   67) = (  -0.6833333   0.0000000   0.0000000), wk =   0.0136054
        k(   68) = (  -0.7000000   0.0000000   0.0000000), wk =   0.0136054
        k(   69) = (  -0.7166667   0.0000000   0.0000000), wk =   0.0136054
        k(   70) = (  -0.7333333   0.0000000   0.0000000), wk =   0.0136054
        k(   71) = (  -0.7500000   0.0000000   0.0000000), wk =   0.0136054
        k(   72) = (  -0.7666667   0.0000000   0.0000000), wk =   0.0136054
        k(   73) = (  -0.7833333   0.0000000   0.0000000), wk =   0.0136054
        k(   74) = (  -0.8000000   0.0000000   0.0000000), wk =   0.0136054
        k(   75) = (  -0.8166667   0.0000000   0.0000000), wk =   0.0136054
        k(   76) = (  -0.8333333   0.0000000   0.0000000), wk =   0.0136054
        k(   77) = (  -0.8500000   0.0000000   0.0000000), wk =   0.0136054
        k(   78) = (  -0.8666667   0.0000000   0.0000000), wk =   0.0136054
        k(   79) = (  -0.8833333   0.0000000   0.0000000), wk =   0.0136054
        k(   80) = (  -0.9000000   0.0000000   0.0000000), wk =   0.0136054
        k(   81) = (  -0.9166667   0.0000000   0.0000000), wk =   0.0136054
        k(   82) = (  -0.9333333   0.0000000   0.0000000), wk =   0.0136054
        k(   83) = (  -0.9500000   0.0000000   0.0000000), wk =   0.0136054
        k(   84) = (  -0.9666667   0.0000000   0.0000000), wk =   0.0136054
        k(   85) = (  -0.9833333   0.0000000   0.0000000), wk =   0.0136054
        k(   86) = (  -1.0000000   0.0000000   0.0000000), wk =   0.0136054
        k(   87) = (  -1.0000000   0.0166667   0.0166667), wk =   0.0136054
        k(   88) = (  -1.0000000   0.0333333   0.0333333), wk =   0.0136054
        k(   89) = (  -1.0000000   0.0500000   0.0500000), wk =   0.0136054
        k(   90) = (  -1.0000000   0.0666667   0.0666667), wk =   0.0136054
        k(   91) = (  -1.0000000   0.0833333   0.0833333), wk =   0.0136054
        k(   92) = (  -1.0000000   0.1000000   0.1000000), wk =   0.0136054
        k(   93) = (  -1.0000000   0.1166667   0.1166667), wk =   0.0136054
        k(   94) = (  -1.0000000   0.1333333   0.1333333), wk =   0.0136054
        k(   95) = (  -1.0000000   0.1500000   0.1500000), wk =   0.0136054
        k(   96) = (  -1.0000000   0.1666667   0.1666667), wk =   0.0136054
        k(   97) = (  -1.0000000   0.1833333   0.1833333), wk =   0.0136054
        k(   98) = (  -1.0000000   0.2000000   0.2000000), wk =   0.0136054
        k(   99) = (  -1.0000000   0.2166667   0.2166667), wk =   0.0136054
        k(  100) = (  -1.0000000   0.2333333   0.2333333), wk =   0.0136054
        k(  101) = (  -1.0000000   0.2500000   0.2500000), wk =   0.0136054
        k(  102) = (  -0.7500000   0.0000000   0.7500000), wk =   0.0136054
        k(  103) = (  -0.7333333   0.0000000   0.7333333), wk =   0.0136054
        k(  104) = (  -0.7166667   0.0000000   0.7166667), wk =   0.0136054
        k(  105) = (  -0.7000000   0.0000000   0.7000000), wk =   0.0136054
        k(  106) = (  -0.6833333   0.0000000   0.6833333), wk =   0.0136054
        k(  107) = (  -0.6666667   0.0000000   0.6666667), wk =   0.0136054
        k(  108) = (  -0.6500000   0.0000000   0.6500000), wk =   0.0136054
        k(  109) = (  -0.6333333   0.0000000   0.6333333), wk =   0.0136054
        k(  110) = (  -0.6166667   0.0000000   0.6166667), wk =   0.0136054
        k(  111) = (  -0.6000000   0.0000000   0.6000000), wk =   0.0136054
        k(  112) = (  -0.5833333   0.0000000   0.5833333), wk =   0.0136054
        k(  113) = (  -0.5666667   0.0000000   0.5666667), wk =   0.0136054
        k(  114) = (  -0.5500000   0.0000000   0.5500000), wk =   0.0136054
        k(  115) = (  -0.5333333   0.0000000   0.5333333), wk =   0.0136054
        k(  116) = (  -0.5166667   0.0000000   0.5166667), wk =   0.0136054
        k(  117) = (  -0.5000000   0.0000000   0.5000000), wk =   0.0136054
        k(  118) = (  -0.4833333   0.0000000   0.4833333), wk =   0.0136054
        k(  119) = (  -0.4666667   0.0000000   0.4666667), wk =   0.0136054
        k(  120) = (  -0.4500000   0.0000000   0.4500000), wk =   0.0136054
        k(  121) = (  -0.4333333   0.0000000   0.4333333), wk =   0.0136054
        k(  122) = (  -0.4166667   0.0000000   0.4166667), wk =   0.0136054
        k(  123) = (  -0.4000000   0.0000000   0.4000000), wk =   0.0136054
        k(  124) = (  -0.3833333   0.0000000   0.3833333), wk =   0.0136054
        k(  125) = (  -0.3666667   0.0000000   0.3666667), wk =   0.0136054
        k(  126) = (  -0.3500000   0.0000000   0.3500000), wk =   0.0136054
        k(  127) = (  -0.3333333   0.0000000   0.3333333), wk =   0.0136054
        k(  128) = (  -0.3166667   0.0000000   0.3166667), wk =   0.0136054
        k(  129) = (  -0.3000000   0.0000000   0.3000000), wk =   0.0136054
        k(  130) = (  -0.2833333   0.0000000   0.2833333), wk =   0.0136054
        k(  131) = (  -0.2666667   0.0000000   0.2666667), wk =   0.0136054
        k(  132) = (  -0.2500000   0.0000000   0.2500000), wk =   0.0136054
        k(  133) = (  -0.2333333   0.0000000   0.2333333), wk =   0.0136054
        k(  134) = (  -0.2166667   0.0000000   0.2166667), wk =   0.0136054
        k(  135) = (  -0.2000000   0.0000000   0.2000000), wk =   0.0136054
        k(  136) = (  -0.1833333   0.0000000   0.1833333), wk =   0.0136054
        k(  137) = (  -0.1666667   0.0000000   0.1666667), wk =   0.0136054
        k(  138) = (  -0.1500000   0.0000000   0.1500000), wk =   0.0136054
        k(  139) = (  -0.1333333   0.0000000   0.1333333), wk =   0.0136054
        k(  140) = (  -0.1166667   0.0000000   0.1166667), wk =   0.0136054
        k(  141) = (  -0.1000000   0.0000000   0.1000000), wk =   0.0136054
        k(  142) = (  -0.0833333   0.0000000   0.0833333), wk =   0.0136054
        k(  143) = (  -0.0666667   0.0000000   0.0666667), wk =   0.0136054
        k(  144) = (  -0.0500000   0.0000000   0.0500000), wk =   0.0136054
        k(  145) = (  -0.0333333   0.0000000   0.0333333), wk =   0.0136054
        k(  146) = (  -0.0166667   0.0000000   0.0166667), wk =   0.0136054
        k(  147) = (   0.0000000   0.0000000   0.0000000), wk =   0.0136054

                       cryst. coord.
        k(    1) = (   0.5000000   0.5000000   0.5000000), wk =   0.0136054
        k(    2) = (   0.4800000   0.4800000   0.4800000), wk =   0.0136054
        k(    3) = (   0.4600000   0.4600000   0.4600000), wk =   0.0136054
        k(    4) = (   0.4400000   0.4400000   0.4400000), wk =   0.0136054
        k(    5) = (   0.4200000   0.4200000   0.4200000), wk =   0.0136054
        k(    6) = (   0.4000000   0.4000000   0.4000000), wk =   0.0136054
        k(    7) = (   0.3800000   0.3800000   0.3800000), wk =   0.0136054
        k(    8) = (   0.3600000   0.3600000   0.3600000), wk =   0.0136054
        k(    9) = (   0.3400000   0.3400000   0.3400000), wk =   0.0136054
        k(   10) = (   0.3200000   0.3200000   0.3200000), wk =   0.0136054
        k(   11) = (   0.3000000   0.3000000   0.3000000), wk =   0.0136054
        k(   12) = (   0.2800000   0.2800000   0.2800000), wk =   0.0136054
        k(   13) = (   0.2600000   0.2600000   0.2600000), wk =   0.0136054
        k(   14) = (   0.2400000   0.2400000   0.2400000), wk =   0.0136054
        k(   15) = (   0.2200000   0.2200000   0.2200000), wk =   0.0136054
        k(   16) = (   0.2000000   0.2000000   0.2000000), wk =   0.0136054
        k(   17) = (   0.1800000   0.1800000   0.1800000), wk =   0.0136054
        k(   18) = (   0.1600000   0.1600000   0.1600000), wk =   0.0136054
        k(   19) = (   0.1400000   0.1400000   0.1400000), wk =   0.0136054
        k(   20) = (   0.1200000   0.1200000   0.1200000), wk =   0.0136054
        k(   21) = (   0.1000000   0.1000000   0.1000000), wk =   0.0136054
        k(   22) = (   0.0800000   0.0800000   0.0800000), wk =   0.0136054
        k(   23) = (   0.0600000   0.0600000   0.0600000), wk =   0.0136054
        k(   24) = (   0.0400000   0.0400000   0.0400000), wk =   0.0136054
        k(   25) = (   0.0200000   0.0200000   0.0200000), wk =   0.0136054
        k(   26) = (   0.0000000   0.0000000   0.0000000), wk =   0.0136054
        k(   27) = (   0.0083333   0.0000000   0.0083333), wk =   0.0136054
        k(   28) = (   0.0166667   0.0000000   0.0166667), wk =   0.0136054
        k(   29) = (   0.0250000   0.0000000   0.0250000), wk =   0.0136054
        k(   30) = (   0.0333333   0.0000000   0.0333333), wk =   0.0136054
        k(   31) = (   0.0416667   0.0000000   0.0416667), wk =   0.0136054
        k(   32) = (   0.0500000   0.0000000   0.0500000), wk =   0.0136054
        k(   33) = (   0.0583333   0.0000000   0.0583333), wk =   0.0136054
        k(   34) = (   0.0666667   0.0000000   0.0666667), wk =   0.0136054
        k(   35) = (   0.0750000   0.0000000   0.0750000), wk =   0.0136054
        k(   36) = (   0.0833333   0.0000000   0.0833333), wk =   0.0136054
        k(   37) = (   0.0916667   0.0000000   0.0916667), wk =   0.0136054
        k(   38) = (   0.1000000   0.0000000   0.1000000), wk =   0.0136054
        k(   39) = (   0.1083333   0.0000000   0.1083333), wk =   0.0136054
        k(   40) = (   0.1166667   0.0000000   0.1166667), wk =   0.0136054
        k(   41) = (   0.1250000   0.0000000   0.1250000), wk =   0.0136054
        k(   42) = (   0.1333333   0.0000000   0.1333333), wk =   0.0136054
        k(   43) = (   0.1416667   0.0000000   0.1416667), wk =   0.0136054
        k(   44) = (   0.1500000   0.0000000   0.1500000), wk =   0.0136054
        k(   45) = (   0.1583333   0.0000000   0.1583333), wk =   0.0136054
        k(   46) = (   0.1666667   0.0000000   0.1666667), wk =   0.0136054
        k(   47) = (   0.1750000   0.0000000   0.1750000), wk =   0.0136054
        k(   48) = (   0.1833333   0.0000000   0.1833333), wk =   0.0136054
        k(   49) = (   0.1916667   0.0000000   0.1916667), wk =   0.0136054
        k(   50) = (   0.2000000   0.0000000   0.2000000), wk =   0.0136054
        k(   51) = (   0.2083333   0.0000000   0.2083333), wk =   0.0136054
        k(   52) = (   0.2166667   0.0000000   0.2166667), wk =   0.0136054
        k(   53) = (   0.2250000   0.0000000   0.2250000), wk =   0.0136054
        k(   54) = (   0.2333333   0.0000000   0.2333333), wk =   0.0136054
        k(   55) = (   0.2416667   0.0000000   0.2416667), wk =   0.0136054
        k(   56) = (   0.2500000   0.0000000   0.2500000), wk =   0.0136054
        k(   57) = (   0.2583333   0.0000000   0.2583333), wk =   0.0136054
        k(   58) = (   0.2666667   0.0000000   0.2666667), wk =   0.0136054
        k(   59) = (   0.2750000   0.0000000   0.2750000), wk =   0.0136054
        k(   60) = (   0.2833333   0.0000000   0.2833333), wk =   0.0136054
        k(   61) = (   0.2916667   0.0000000   0.2916667), wk =   0.0136054
        k(   62) = (   0.3000000   0.0000000   0.3000000), wk =   0.0136054
        k(   63) = (   0.3083333   0.0000000   0.3083333), wk =   0.0136054
        k(   64) = (   0.3166667   0.0000000   0.3166667), wk =   0.0136054
        k(   65) = (   0.3250000   0.0000000   0.3250000), wk =   0.0136054
        k(   66) = (   0.3333333   0.0000000   0.3333333), wk =   0.0136054
        k(   67) = (   0.3416667   0.0000000   0.3416667), wk =   0.0136054
        k(   68) = (   0.3500000   0.0000000   0.3500000), wk =   0.0136054
        k(   69) = (   0.3583333   0.0000000   0.3583333), wk =   0.0136054
        k(   70) = (   0.3666667   0.0000000   0.3666667), wk =   0.0136054
        k(   71) = (   0.3750000   0.0000000   0.3750000), wk =   0.0136054
        k(   72) = (   0.3833333   0.0000000   0.3833333), wk =   0.0136054
        k(   73) = (   0.3916667   0.0000000   0.3916667), wk =   0.0136054
        k(   74) = (   0.4000000   0.0000000   0.4000000), wk =   0.0136054
        k(   75) = (   0.4083333   0.0000000   0.4083333), wk =   0.0136054
        k(   76) = (   0.4166667   0.0000000   0.4166667), wk =   0.0136054
        k(   77) = (   0.4250000   0.0000000   0.4250000), wk =   0.0136054
        k(   78) = (   0.4333333   0.0000000   0.4333333), wk =   0.0136054
        k(   79) = (   0.4416667   0.0000000   0.4416667), wk =   0.0136054
        k(   80) = (   0.4500000   0.0000000   0.4500000), wk =   0.0136054
        k(   81) = (   0.4583333   0.0000000   0.4583333), wk =   0.0136054
        k(   82) = (   0.4666667   0.0000000   0.4666667), wk =   0.0136054
        k(   83) = (   0.4750000   0.0000000   0.4750000), wk =   0.0136054
        k(   84) = (   0.4833333   0.0000000   0.4833333), wk =   0.0136054
        k(   85) = (   0.4916667   0.0000000   0.4916667), wk =   0.0136054
        k(   86) = (   0.5000000   0.0000000   0.5000000), wk =   0.0136054
        k(   87) = (   0.5083333   0.0166667   0.5083333), wk =   0.0136054
        k(   88) = (   0.5166667   0.0333333   0.5166667), wk =   0.0136054
        k(   89) = (   0.5250000   0.0500000   0.5250000), wk =   0.0136054
        k(   90) = (   0.5333333   0.0666667   0.5333333), wk =   0.0136054
        k(   91) = (   0.5416667   0.0833333   0.5416667), wk =   0.0136054
        k(   92) = (   0.5500000   0.1000000   0.5500000), wk =   0.0136054
        k(   93) = (   0.5583333   0.1166667   0.5583333), wk =   0.0136054
        k(   94) = (   0.5666667   0.1333333   0.5666667), wk =   0.0136054
        k(   95) = (   0.5750000   0.1500000   0.5750000), wk =   0.0136054
        k(   96) = (   0.5833333   0.1666667   0.5833333), wk =   0.0136054
        k(   97) = (   0.5916667   0.1833333   0.5916667), wk =   0.0136054
        k(   98) = (   0.6000000   0.2000000   0.6000000), wk =   0.0136054
        k(   99) = (   0.6083333   0.2166667   0.6083333), wk =   0.0136054
        k(  100) = (   0.6166667   0.2333333   0.6166667), wk =   0.0136054
        k(  101) = (   0.6250000   0.2500000   0.6250000), wk =   0.0136054
        k(  102) = (   0.7500000   0.3750000   0.3750000), wk =   0.0136054
        k(  103) = (   0.7333333   0.3666667   0.3666667), wk =   0.0136054
        k(  104) = (   0.7166667   0.3583333   0.3583333), wk =   0.0136054
        k(  105) = (   0.7000000   0.3500000   0.3500000), wk =   0.0136054
        k(  106) = (   0.6833333   0.3416667   0.3416667), wk =   0.0136054
        k(  107) = (   0.6666667   0.3333333   0.3333333), wk =   0.0136054
        k(  108) = (   0.6500000   0.3250000   0.3250000), wk =   0.0136054
        k(  109) = (   0.6333333   0.3166667   0.3166667), wk =   0.0136054
        k(  110) = (   0.6166667   0.3083333   0.3083333), wk =   0.0136054
        k(  111) = (   0.6000000   0.3000000   0.3000000), wk =   0.0136054
        k(  112) = (   0.5833333   0.2916667   0.2916667), wk =   0.0136054
        k(  113) = (   0.5666667   0.2833333   0.2833333), wk =   0.0136054
        k(  114) = (   0.5500000   0.2750000   0.2750000), wk =   0.0136054
        k(  115) = (   0.5333333   0.2666667   0.2666667), wk =   0.0136054
        k(  116) = (   0.5166667   0.2583333   0.2583333), wk =   0.0136054
        k(  117) = (   0.5000000   0.2500000   0.2500000), wk =   0.0136054
        k(  118) = (   0.4833333   0.2416667   0.2416667), wk =   0.0136054
        k(  119) = (   0.4666667   0.2333333   0.2333333), wk =   0.0136054
        k(  120) = (   0.4500000   0.2250000   0.2250000), wk =   0.0136054
        k(  121) = (   0.4333333   0.2166667   0.2166667), wk =   0.0136054
        k(  122) = (   0.4166667   0.2083333   0.2083333), wk =   0.0136054
        k(  123) = (   0.4000000   0.2000000   0.2000000), wk =   0.0136054
        k(  124) = (   0.3833333   0.1916667   0.1916667), wk =   0.0136054
        k(  125) = (   0.3666667   0.1833333   0.1833333), wk =   0.0136054
        k(  126) = (   0.3500000   0.1750000   0.1750000), wk =   0.0136054
        k(  127) = (   0.3333333   0.1666667   0.1666667), wk =   0.0136054
        k(  128) = (   0.3166667   0.1583333   0.1583333), wk =   0.0136054
        k(  129) = (   0.3000000   0.1500000   0.1500000), wk =   0.0136054
        k(  130) = (   0.2833333   0.1416667   0.1416667), wk =   0.0136054
        k(  131) = (   0.2666667   0.1333333   0.1333333), wk =   0.0136054
        k(  132) = (   0.2500000   0.1250000   0.1250000), wk =   0.0136054
        k(  133) = (   0.2333333   0.1166667   0.1166667), wk =   0.0136054
        k(  134) = (   0.2166667   0.1083333   0.1083333), wk =   0.0136054
        k(  135) = (   0.2000000   0.1000000   0.1000000), wk =   0.0136054
        k(  136) = (   0.1833333   0.0916667   0.0916667), wk =   0.0136054
        k(  137) = (   0.1666667   0.0833333   0.0833333), wk =   0.0136054
        k(  138) = (   0.1500000   0.0750000   0.0750000), wk =   0.0136054
        k(  139) = (   0.1333333   0.0666667   0.0666667), wk =   0.0136054
        k(  140) = (   0.1166667   0.0583333   0.0583333), wk =   0.0136054
        k(  141) = (   0.1000000   0.0500000   0.0500000), wk =   0.0136054
        k(  142) = (   0.0833333   0.0416667   0.0416667), wk =   0.0136054
        k(  143) = (   0.0666667   0.0333333   0.0333333), wk =   0.0136054
        k(  144) = (   0.0500000   0.0250000   0.0250000), wk =   0.0136054
        k(  145) = (   0.0333333   0.0166667   0.0166667), wk =   0.0136054
        k(  146) = (   0.0166667   0.0083333   0.0083333), wk =   0.0136054
        k(  147) = (   0.0000000   0.0000000   0.0000000), wk =   0.0136054

     Dense  grid:     9257 G-vectors     FFT dimensions: (  32,  32,  32)

     Dynamical RAM for                 wfc:       0.21 MB

     Dynamical RAM for     wfc (w. buffer):       0.21 MB

     Dynamical RAM for           str. fact:       0.14 MB

     Dynamical RAM for           local pot:       0.00 MB

     Dynamical RAM for          nlocal pot:       0.28 MB

     Dynamical RAM for                qrad:       0.29 MB

     Dynamical RAM for          rho,v,vnew:       1.17 MB

     Dynamical RAM for           G-vectors:       0.60 MB

     Dynamical RAM for          h,s,v(r/c):       0.03 MB

     Dynamical RAM for          <psi|beta>:       0.00 MB

     Dynamical RAM for                 psi:       0.42 MB

     Dynamical RAM for                hpsi:       0.42 MB

     Dynamical RAM for                spsi:       0.42 MB

     Dynamical RAM for      wfcinit/wfcrot:       0.43 MB

     Dynamical RAM for           addusdens:       6.36 MB

     Estimated static dynamical RAM per process >       4.23 MB

     Estimated max dynamical RAM per process >      10.59 MB

     Atomic positions and unit cell read from directory:
     ./silicon.save/


     Check: negative core charge=   -0.000003

     The potential is recalculated from file :
     ./silicon.save/charge-density

     Starting wfcs are    8 randomized atomic wfcs +    4 random wfcs

     Band Structure Calculation
     Davidson diagonalization with overlap

     Computing kpt #:     1  of   147
     total cpu time spent up to now is        0.5 secs

     Computing kpt #:     2  of   147
     total cpu time spent up to now is        0.7 secs

     Computing kpt #:     3  of   147
     total cpu time spent up to now is        1.0 secs

     Computing kpt #:     4  of   147
     total cpu time spent up to now is        1.2 secs

     Computing kpt #:     5  of   147
     total cpu time spent up to now is        1.4 secs

     Computing kpt #:     6  of   147
     total cpu time spent up to now is        1.6 secs

     Computing kpt #:     7  of   147
     total cpu time spent up to now is        1.8 secs

     Computing kpt #:     8  of   147
     total cpu time spent up to now is        2.0 secs

     Computing kpt #:     9  of   147
     total cpu time spent up to now is        2.2 secs

     Computing kpt #:    10  of   147
     total cpu time spent up to now is        2.5 secs

     Computing kpt #:    11  of   147
     total cpu time spent up to now is        2.6 secs

     Computing kpt #:    12  of   147
     total cpu time spent up to now is        2.8 secs

     Computing kpt #:    13  of   147
     total cpu time spent up to now is        3.0 secs

     Computing kpt #:    14  of   147
     total cpu time spent up to now is        3.2 secs

     Computing kpt #:    15  of   147
     total cpu time spent up to now is        3.4 secs

     Computing kpt #:    16  of   147
     total cpu time spent up to now is        3.6 secs

     Computing kpt #:    17  of   147
     total cpu time spent up to now is        3.7 secs

     Computing kpt #:    18  of   147
     total cpu time spent up to now is        3.9 secs

     Computing kpt #:    19  of   147
     total cpu time spent up to now is        4.1 secs

     Computing kpt #:    20  of   147
     total cpu time spent up to now is        4.3 secs

     Computing kpt #:    21  of   147
     total cpu time spent up to now is        4.5 secs

     Computing kpt #:    22  of   147
     total cpu time spent up to now is        4.6 secs

     Computing kpt #:    23  of   147
     total cpu time spent up to now is        4.8 secs

     Computing kpt #:    24  of   147
     total cpu time spent up to now is        5.0 secs

     Computing kpt #:    25  of   147
     total cpu time spent up to now is        5.2 secs

     Computing kpt #:    26  of   147
     total cpu time spent up to now is        5.4 secs

     Computing kpt #:    27  of   147
     total cpu time spent up to now is        5.6 secs

     Computing kpt #:    28  of   147
     total cpu time spent up to now is        5.8 secs

     Computing kpt #:    29  of   147
     total cpu time spent up to now is        6.0 secs

     Computing kpt #:    30  of   147
     total cpu time spent up to now is        6.1 secs

     Computing kpt #:    31  of   147
     total cpu time spent up to now is        6.4 secs

     Computing kpt #:    32  of   147
     total cpu time spent up to now is        6.6 secs

     Computing kpt #:    33  of   147
     total cpu time spent up to now is        6.7 secs

     Computing kpt #:    34  of   147
     total cpu time spent up to now is        6.9 secs

     Computing kpt #:    35  of   147
     total cpu time spent up to now is        7.1 secs

     Computing kpt #:    36  of   147
     total cpu time spent up to now is        7.3 secs

     Computing kpt #:    37  of   147
     total cpu time spent up to now is        7.5 secs

     Computing kpt #:    38  of   147
     total cpu time spent up to now is        7.7 secs

     Computing kpt #:    39  of   147
     total cpu time spent up to now is        7.9 secs

     Computing kpt #:    40  of   147
     total cpu time spent up to now is        8.1 secs

     Computing kpt #:    41  of   147
     total cpu time spent up to now is        8.3 secs

     Computing kpt #:    42  of   147
     total cpu time spent up to now is        8.5 secs

     Computing kpt #:    43  of   147
     total cpu time spent up to now is        8.7 secs

     Computing kpt #:    44  of   147
     total cpu time spent up to now is        9.0 secs

     Computing kpt #:    45  of   147
     total cpu time spent up to now is        9.2 secs

     Computing kpt #:    46  of   147
     total cpu time spent up to now is        9.4 secs

     Computing kpt #:    47  of   147
     total cpu time spent up to now is        9.6 secs

     Computing kpt #:    48  of   147
     total cpu time spent up to now is        9.8 secs

     Computing kpt #:    49  of   147
     total cpu time spent up to now is       10.1 secs

     Computing kpt #:    50  of   147
     total cpu time spent up to now is       10.3 secs

     Computing kpt #:    51  of   147
     total cpu time spent up to now is       10.5 secs

     Computing kpt #:    52  of   147
     total cpu time spent up to now is       10.7 secs

     Computing kpt #:    53  of   147
     total cpu time spent up to now is       10.9 secs

     Computing kpt #:    54  of   147
     total cpu time spent up to now is       11.1 secs

     Computing kpt #:    55  of   147
     total cpu time spent up to now is       11.4 secs

     Computing kpt #:    56  of   147
     total cpu time spent up to now is       11.6 secs

     Computing kpt #:    57  of   147
     total cpu time spent up to now is       11.8 secs

     Computing kpt #:    58  of   147
     total cpu time spent up to now is       12.1 secs

     Computing kpt #:    59  of   147
     total cpu time spent up to now is       12.3 secs

     Computing kpt #:    60  of   147
     total cpu time spent up to now is       12.5 secs

     Computing kpt #:    61  of   147
     total cpu time spent up to now is       12.7 secs

     Computing kpt #:    62  of   147
     total cpu time spent up to now is       13.0 secs

     Computing kpt #:    63  of   147
     total cpu time spent up to now is       13.2 secs

     Computing kpt #:    64  of   147
     total cpu time spent up to now is       13.4 secs

     Computing kpt #:    65  of   147
     total cpu time spent up to now is       13.7 secs

     Computing kpt #:    66  of   147
     total cpu time spent up to now is       13.9 secs

     Computing kpt #:    67  of   147
     total cpu time spent up to now is       14.2 secs

     Computing kpt #:    68  of   147
     total cpu time spent up to now is       14.4 secs

     Computing kpt #:    69  of   147
     total cpu time spent up to now is       14.7 secs

     Computing kpt #:    70  of   147
     total cpu time spent up to now is       14.9 secs

     Computing kpt #:    71  of   147
     total cpu time spent up to now is       15.2 secs

     Computing kpt #:    72  of   147
     total cpu time spent up to now is       15.4 secs

     Computing kpt #:    73  of   147
     total cpu time spent up to now is       15.7 secs

     Computing kpt #:    74  of   147
     total cpu time spent up to now is       15.9 secs

     Computing kpt #:    75  of   147
     total cpu time spent up to now is       16.2 secs

     Computing kpt #:    76  of   147
     total cpu time spent up to now is       16.5 secs

     Computing kpt #:    77  of   147
     total cpu time spent up to now is       16.7 secs

     Computing kpt #:    78  of   147
     total cpu time spent up to now is       17.0 secs

     Computing kpt #:    79  of   147
     total cpu time spent up to now is       17.3 secs

     Computing kpt #:    80  of   147
     total cpu time spent up to now is       17.6 secs

     Computing kpt #:    81  of   147
     total cpu time spent up to now is       17.9 secs

     Computing kpt #:    82  of   147
     total cpu time spent up to now is       18.2 secs

     Computing kpt #:    83  of   147
     total cpu time spent up to now is       18.5 secs

     Computing kpt #:    84  of   147
     total cpu time spent up to now is       18.8 secs

     Computing kpt #:    85  of   147
     total cpu time spent up to now is       19.1 secs

     Computing kpt #:    86  of   147
     total cpu time spent up to now is       19.4 secs

     Computing kpt #:    87  of   147
     total cpu time spent up to now is       19.7 secs

     Computing kpt #:    88  of   147
     total cpu time spent up to now is       20.0 secs

     Computing kpt #:    89  of   147
     total cpu time spent up to now is       20.3 secs

     Computing kpt #:    90  of   147
     total cpu time spent up to now is       20.6 secs

     Computing kpt #:    91  of   147
     total cpu time spent up to now is       20.9 secs

     Computing kpt #:    92  of   147
     c_bands:  2 eigenvalues not converged
     total cpu time spent up to now is       21.3 secs

     Computing kpt #:    93  of   147
     c_bands:  2 eigenvalues not converged
     total cpu time spent up to now is       21.7 secs

     Computing kpt #:    94  of   147
     total cpu time spent up to now is       22.1 secs

     Computing kpt #:    95  of   147
     total cpu time spent up to now is       22.4 secs

     Computing kpt #:    96  of   147
     total cpu time spent up to now is       22.6 secs

     Computing kpt #:    97  of   147
     total cpu time spent up to now is       22.9 secs

     Computing kpt #:    98  of   147
     total cpu time spent up to now is       23.2 secs

     Computing kpt #:    99  of   147
     total cpu time spent up to now is       23.5 secs

     Computing kpt #:   100  of   147
     total cpu time spent up to now is       23.7 secs

     Computing kpt #:   101  of   147
     total cpu time spent up to now is       24.0 secs

     Computing kpt #:   102  of   147
     total cpu time spent up to now is       24.2 secs

     Computing kpt #:   103  of   147
     total cpu time spent up to now is       24.5 secs

     Computing kpt #:   104  of   147
     total cpu time spent up to now is       24.8 secs

     Computing kpt #:   105  of   147
     total cpu time spent up to now is       25.0 secs

     Computing kpt #:   106  of   147
     total cpu time spent up to now is       25.3 secs

     Computing kpt #:   107  of   147
     total cpu time spent up to now is       25.5 secs

     Computing kpt #:   108  of   147
     total cpu time spent up to now is       25.7 secs

     Computing kpt #:   109  of   147
     total cpu time spent up to now is       25.9 secs

     Computing kpt #:   110  of   147
     total cpu time spent up to now is       26.2 secs

     Computing kpt #:   111  of   147
     total cpu time spent up to now is       26.4 secs

     Computing kpt #:   112  of   147
     total cpu time spent up to now is       26.6 secs

     Computing kpt #:   113  of   147
     total cpu time spent up to now is       26.8 secs

     Computing kpt #:   114  of   147
     total cpu time spent up to now is       27.1 secs

     Computing kpt #:   115  of   147
     total cpu time spent up to now is       27.4 secs

     Computing kpt #:   116  of   147
     total cpu time spent up to now is       27.6 secs

     Computing kpt #:   117  of   147
     total cpu time spent up to now is       27.8 secs

     Computing kpt #:   118  of   147
     total cpu time spent up to now is       28.0 secs

     Computing kpt #:   119  of   147
     total cpu time spent up to now is       28.2 secs

     Computing kpt #:   120  of   147
     total cpu time spent up to now is       28.4 secs

     Computing kpt #:   121  of   147
     total cpu time spent up to now is       28.5 secs

     Computing kpt #:   122  of   147
     total cpu time spent up to now is       28.7 secs

     Computing kpt #:   123  of   147
     total cpu time spent up to now is       28.9 secs

     Computing kpt #:   124  of   147
     total cpu time spent up to now is       29.0 secs

     Computing kpt #:   125  of   147
     total cpu time spent up to now is       29.2 secs

     Computing kpt #:   126  of   147
     total cpu time spent up to now is       29.4 secs

     Computing kpt #:   127  of   147
     total cpu time spent up to now is       29.6 secs

     Computing kpt #:   128  of   147
     total cpu time spent up to now is       29.7 secs

     Computing kpt #:   129  of   147
     total cpu time spent up to now is       29.9 secs

     Computing kpt #:   130  of   147
     total cpu time spent up to now is       30.1 secs

     Computing kpt #:   131  of   147
     total cpu time spent up to now is       30.3 secs

     Computing kpt #:   132  of   147
     total cpu time spent up to now is       30.4 secs

     Computing kpt #:   133  of   147
     total cpu time spent up to now is       30.6 secs

     Computing kpt #:   134  of   147
     total cpu time spent up to now is       30.8 secs

     Computing kpt #:   135  of   147
     total cpu time spent up to now is       31.1 secs

     Computing kpt #:   136  of   147
     total cpu time spent up to now is       31.3 secs

     Computing kpt #:   137  of   147
     total cpu time spent up to now is       31.4 secs

     Computing kpt #:   138  of   147
     total cpu time spent up to now is       31.6 secs

     Computing kpt #:   139  of   147
     total cpu time spent up to now is       31.8 secs

     Computing kpt #:   140  of   147
     total cpu time spent up to now is       32.1 secs

     Computing kpt #:   141  of   147
     total cpu time spent up to now is       32.2 secs

     Computing kpt #:   142  of   147
     total cpu time spent up to now is       32.5 secs

     Computing kpt #:   143  of   147
     total cpu time spent up to now is       32.7 secs

     Computing kpt #:   144  of   147
     total cpu time spent up to now is       32.9 secs

     Computing kpt #:   145  of   147
     total cpu time spent up to now is       33.1 secs

     Computing kpt #:   146  of   147
     total cpu time spent up to now is       33.3 secs

     Computing kpt #:   147  of   147
     total cpu time spent up to now is       33.5 secs

     ethr =  1.25E-11,  avg # of iterations = 52.3

     total cpu time spent up to now is       33.5 secs

     End of band structure calculation

          k =-0.5000 0.5000 0.5000 (  1158 PWs)   bands (ev):

    -3.4714  -0.8465   4.9669   4.9669   7.6371   9.4541   9.4541  13.6926
    16.6975  16.6975  17.3813  17.4549

          k =-0.4800 0.4800 0.4800 (  1164 PWs)   bands (ev):

    -3.4947  -0.8132   4.9698   4.9698   7.6404   9.4575   9.4575  13.6980
    16.5161  16.5161  17.2963  17.6483

          k =-0.4600 0.4600 0.4600 (  1164 PWs)   bands (ev):

    -3.5613  -0.7169   4.9784   4.9784   7.6504   9.4678   9.4678  13.7141
    16.1787  16.1787  17.0791  18.0217

          k =-0.4400 0.4400 0.4400 (  1161 PWs)   bands (ev):

    -3.6626  -0.5661   4.9927   4.9927   7.6669   9.4844   9.4844  13.7401
    15.8177  15.8177  16.7906  18.4424

          k =-0.4200 0.4200 0.4200 (  1155 PWs)   bands (ev):

    -3.7885  -0.3708   5.0127   5.0127   7.6900   9.5065   9.5065  13.7746
    15.4607  15.4607  16.4697  18.8820

          k =-0.4000 0.4000 0.4000 (  1149 PWs)   bands (ev):

    -3.9302  -0.1402   5.0384   5.0384   7.7196   9.5330   9.5330  13.8147
    15.1162  15.1162  16.1374  19.3301

          k =-0.3800 0.3800 0.3800 (  1155 PWs)   bands (ev):

    -4.0805   0.1184   5.0698   5.0698   7.7557   9.5623   9.5623  13.8557
    14.7888  14.7888  15.8072  19.7789

          k =-0.3600 0.3600 0.3600 (  1155 PWs)   bands (ev):

    -4.2342   0.3998   5.1068   5.1068   7.7980   9.5925   9.5925  13.8880
    14.4819  14.4819  15.4929  20.0100

          k =-0.3400 0.3400 0.3400 (  1149 PWs)   bands (ev):

    -4.3877   0.7000   5.1494   5.1494   7.8465   9.6209   9.6209  13.8930
    14.1989  14.1989  15.2148  19.7380

          k =-0.3200 0.3200 0.3200 (  1152 PWs)   bands (ev):

    -4.5383   1.0161   5.1974   5.1974   7.9009   9.6445   9.6445  13.8387
    13.9430  13.9430  15.0053  19.3607

          k =-0.3000 0.3000 0.3000 (  1155 PWs)   bands (ev):

    -4.6841   1.3458   5.2507   5.2507   7.9610   9.6597   9.6597  13.6932
    13.7183  13.7183  14.8953  18.9327

          k =-0.2800 0.2800 0.2800 (  1164 PWs)   bands (ev):

    -4.8237   1.6872   5.3091   5.3091   8.0263   9.6629   9.6629  13.4592
    13.5284  13.5284  14.8799  18.4883

          k =-0.2600 0.2600 0.2600 (  1158 PWs)   bands (ev):

    -4.9562   2.0390   5.3723   5.3723   8.0964   9.6504   9.6504  13.1678
    13.3770  13.3770  14.9239  18.0494

          k =-0.2400 0.2400 0.2400 (  1158 PWs)   bands (ev):

    -5.0806   2.3994   5.4400   5.4400   8.1707   9.6195   9.6195  12.8452
    13.2667  13.2667  14.9942  17.6328

          k =-0.2200 0.2200 0.2200 (  1167 PWs)   bands (ev):

    -5.1964   2.7673   5.5116   5.5116   8.2483   9.5688   9.5688  12.5056
    13.1986  13.1986  15.0648  17.2567

          k =-0.2000 0.2000 0.2000 (  1167 PWs)   bands (ev):

    -5.3033   3.1410   5.5865   5.5865   8.3282   9.4989   9.4989  12.1566
    13.1720  13.1720  15.1087  16.9451

          k =-0.1800 0.1800 0.1800 (  1167 PWs)   bands (ev):

    -5.4007   3.5187   5.6638   5.6638   8.4090   9.4122   9.4122  11.8024
    13.1837  13.1837  15.0942  16.7287

          k =-0.1600 0.1600 0.1600 (  1173 PWs)   bands (ev):

    -5.4884   3.8983   5.7424   5.7424   8.4890   9.3128   9.3128  11.4463
    13.2291  13.2291  14.9993  16.6297

          k =-0.1400 0.1400 0.1400 (  1173 PWs)   bands (ev):

    -5.5663   4.2770   5.8209   5.8209   8.5657   9.2058   9.2058  11.0916
    13.3021  13.3021  14.8343  16.6375

          k =-0.1200 0.1200 0.1200 (  1173 PWs)   bands (ev):

    -5.6341   4.6508   5.8975   5.8975   8.6359   9.0966   9.0966  10.7431
    13.3955  13.3955  14.6337  16.7168

          k =-0.1000 0.1000 0.1000 (  1179 PWs)   bands (ev):

    -5.6916   5.0142   5.9700   5.9700   8.6953   8.9909   8.9909  10.4084
    13.5015  13.5015  14.4298  16.8334

          k =-0.0800 0.0800 0.0800 (  1185 PWs)   bands (ev):

    -5.7389   5.3586   6.0357   6.0357   8.7377   8.8943   8.8943  10.0990
    13.6110  13.6110  14.2438  16.9627

          k =-0.0600 0.0600 0.0600 (  1179 PWs)   bands (ev):

    -5.7757   5.6707   6.0916   6.0916   8.7554   8.8121   8.8121   9.8333
    13.7141  13.7141  14.0886  17.0861

          k =-0.0400 0.0400 0.0400 (  1164 PWs)   bands (ev):

    -5.8020   5.9300   6.1345   6.1345   8.7434   8.7492   8.7492   9.6342
    13.7995  13.7995  13.9727  17.1883

          k =-0.0200 0.0200 0.0200 (  1157 PWs)   bands (ev):

    -5.8179   6.1071   6.1617   6.1617   8.7096   8.7096   8.7129   9.5175
    13.8564  13.8564  13.9011  17.2561

          k = 0.0000 0.0000 0.0000 (  1139 PWs)   bands (ev):

    -5.8231   6.1710   6.1710   6.1710   8.6961   8.6961   8.6961   9.4805
    13.8765  13.8765  13.8769  17.2799

          k =-0.0167 0.0000 0.0000 (  1139 PWs)   bands (ev):

    -5.8219   6.1625   6.1656   6.1656   8.6929   8.7030   8.7030   9.4889
    13.8658  13.8779  13.8825  17.2820

          k =-0.0333 0.0000 0.0000 (  1155 PWs)   bands (ev):

    -5.8183   6.1372   6.1494   6.1494   8.6833   8.7236   8.7236   9.5136
    13.8340  13.8819  13.8993  17.2884

          k =-0.0500 0.0000 0.0000 (  1163 PWs)   bands (ev):

    -5.8121   6.0960   6.1231   6.1231   8.6674   8.7574   8.7574   9.5539
    13.7827  13.8886  13.9271  17.2991

          k =-0.0667 0.0000 0.0000 (  1167 PWs)   bands (ev):

    -5.8036   6.0399   6.0874   6.0874   8.6455   8.8035   8.8035   9.6083
    13.7136  13.8980  13.9658  17.3141

          k =-0.0833 0.0000 0.0000 (  1171 PWs)   bands (ev):

    -5.7926   5.9705   6.0433   6.0433   8.6179   8.8610   8.8610   9.6752
    13.6293  13.9101  14.0149  17.3333

          k =-0.1000 0.0000 0.0000 (  1171 PWs)   bands (ev):

    -5.7792   5.8892   5.9919   5.9919   8.5850   8.9287   8.9287   9.7525
    13.5326  13.9250  14.0742  17.3568

          k =-0.1167 0.0000 0.0000 (  1175 PWs)   bands (ev):

    -5.7633   5.7975   5.9343   5.9343   8.5471   9.0056   9.0056   9.8382
    13.4263  13.9424  14.1432  17.3846

          k =-0.1333 0.0000 0.0000 (  1171 PWs)   bands (ev):

    -5.7450   5.6969   5.8715   5.8715   8.5046   9.0907   9.0907   9.9301
    13.3133  13.9626  14.2214  17.4166

          k =-0.1500 0.0000 0.0000 (  1171 PWs)   bands (ev):

    -5.7243   5.5887   5.8044   5.8044   8.4581   9.1829   9.1829  10.0258
    13.1967  13.9855  14.3084  17.4528

          k =-0.1667 0.0000 0.0000 (  1163 PWs)   bands (ev):

    -5.7011   5.4740   5.7340   5.7340   8.4080   9.2815   9.2815  10.1228
    13.0794  14.0111  14.4037  17.4933

          k =-0.1833 0.0000 0.0000 (  1163 PWs)   bands (ev):

    -5.6755   5.3538   5.6608   5.6608   8.3548   9.3856   9.3856  10.2183
    12.9649  14.0393  14.5068  17.5380

          k =-0.2000 0.0000 0.0000 (  1171 PWs)   bands (ev):

    -5.6475   5.2290   5.5857   5.5857   8.2989   9.4946   9.4946  10.3089
    12.8569  14.0703  14.6172  17.5868

          k =-0.2167 0.0000 0.0000 (  1171 PWs)   bands (ev):

    -5.6171   5.1003   5.5090   5.5090   8.2408   9.6080   9.6080  10.3909
    12.7594  14.1039  14.7344  17.6398

          k =-0.2333 0.0000 0.0000 (  1163 PWs)   bands (ev):

    -5.5843   4.9682   5.4314   5.4314   8.1808   9.7252   9.7252  10.4598
    12.6774  14.1402  14.8581  17.6970

          k =-0.2500 0.0000 0.0000 (  1163 PWs)   bands (ev):

    -5.5490   4.8333   5.3532   5.3532   8.1193   9.8458   9.8458  10.5107
    12.6159  14.1792  14.9877  17.7582

          k =-0.2667 0.0000 0.0000 (  1163 PWs)   bands (ev):

    -5.5114   4.6960   5.2748   5.2748   8.0568   9.9694   9.9694  10.5392
    12.5796  14.2209  15.1229  17.8235

          k =-0.2833 0.0000 0.0000 (  1163 PWs)   bands (ev):

    -5.4713   4.5567   5.1964   5.1964   7.9935  10.0959  10.0959  10.5420
    12.5720  14.2653  15.2632  17.8927

          k =-0.3000 0.0000 0.0000 (  1163 PWs)   bands (ev):

    -5.4289   4.4156   5.1183   5.1183   7.9297  10.2247  10.2247  10.5180
    12.5944  14.3123  15.4084  17.9658

          k =-0.3167 0.0000 0.0000 (  1163 PWs)   bands (ev):

    -5.3841   4.2730   5.0407   5.0407   7.8657  10.3558  10.3558  10.4687
    12.6455  14.3621  15.5580  18.0427

          k =-0.3333 0.0000 0.0000 (  1162 PWs)   bands (ev):

    -5.3369   4.1292   4.9639   4.9639   7.8019  10.3973  10.4890  10.4890
    12.7221  14.4145  15.7117  18.1233

          k =-0.3500 0.0000 0.0000 (  1162 PWs)   bands (ev):

    -5.2873   3.9843   4.8879   4.8879   7.7383  10.3081  10.6239  10.6239
    12.8201  14.4696  15.8691  18.2074

          k =-0.3667 0.0000 0.0000 (  1162 PWs)   bands (ev):

    -5.2354   3.8384   4.8129   4.8129   7.6753  10.2052  10.7606  10.7606
    12.9354  14.5274  16.0300  18.2949

          k =-0.3833 0.0000 0.0000 (  1170 PWs)   bands (ev):

    -5.1812   3.6917   4.7392   4.7392   7.6130  10.0923  10.8988  10.8988
    13.0645  14.5878  16.1941  18.3856

          k =-0.4000 0.0000 0.0000 (  1170 PWs)   bands (ev):

    -5.1246   3.5444   4.6666   4.6666   7.5517   9.9723  11.0384  11.0384
    13.2043  14.6509  16.3609  18.4792

          k =-0.4167 0.0000 0.0000 (  1162 PWs)   bands (ev):

    -5.0656   3.3964   4.5954   4.5954   7.4914   9.8476  11.1793  11.1793
    13.3527  14.7167  16.5302  18.5754

          k =-0.4333 0.0000 0.0000 (  1162 PWs)   bands (ev):

    -5.0044   3.2480   4.5257   4.5257   7.4323   9.7199  11.3214  11.3214
    13.5079  14.7852  16.7017  18.6738

          k =-0.4500 0.0000 0.0000 (  1162 PWs)   bands (ev):

    -4.9408   3.0991   4.4575   4.4575   7.3747   9.5907  11.4646  11.4646
    13.6684  14.8563  16.8750  18.7739

          k =-0.4667 0.0000 0.0000 (  1162 PWs)   bands (ev):

    -4.8749   2.9500   4.3908   4.3908   7.3185   9.4609  11.6089  11.6089
    13.8332  14.9301  17.0497  18.8751

          k =-0.4833 0.0000 0.0000 (  1174 PWs)   bands (ev):

    -4.8068   2.8005   4.3259   4.3259   7.2640   9.3315  11.7541  11.7541
    14.0015  15.0066  17.2255  18.9766

          k =-0.5000 0.0000 0.0000 (  1174 PWs)   bands (ev):

    -4.7364   2.6508   4.2626   4.2626   7.2111   9.2031  11.9002  11.9002
    14.1725  15.0857  17.4019  19.0775

          k =-0.5167 0.0000 0.0000 (  1174 PWs)   bands (ev):

    -4.6637   2.5010   4.2010   4.2010   7.1602   9.0762  12.0472  12.0472
    14.3457  15.1675  17.5786  19.1766

          k =-0.5333 0.0000 0.0000 (  1158 PWs)   bands (ev):

    -4.5887   2.3511   4.1413   4.1413   7.1111   8.9512  12.1951  12.1951
    14.5207  15.2520  17.7549  19.2723

          k =-0.5500 0.0000 0.0000 (  1158 PWs)   bands (ev):

    -4.5116   2.2012   4.0834   4.0834   7.0640   8.8285  12.3437  12.3437
    14.6969  15.3391  17.9304  19.3626

          k =-0.5667 0.0000 0.0000 (  1158 PWs)   bands (ev):

    -4.4322   2.0513   4.0274   4.0274   7.0191   8.7084  12.4930  12.4930
    14.8740  15.4288  18.1043  19.4452

          k =-0.5833 0.0000 0.0000 (  1146 PWs)   bands (ev):

    -4.3506   1.9015   3.9733   3.9733   6.9763   8.5910  12.6430  12.6430
    15.0519  15.5212  18.2761  19.5172

          k =-0.6000 0.0000 0.0000 (  1146 PWs)   bands (ev):

    -4.2668   1.7518   3.9211   3.9211   6.9357   8.4765  12.7937  12.7937
    15.2301  15.6163  18.4449  19.5753

          k =-0.6167 0.0000 0.0000 (  1154 PWs)   bands (ev):

    -4.1809   1.6023   3.8708   3.8708   6.8974   8.3651  12.9451  12.9451
    15.4084  15.7140  18.6099  19.6159

          k =-0.6333 0.0000 0.0000 (  1154 PWs)   bands (ev):

    -4.0928   1.4530   3.8226   3.8226   6.8615   8.2570  13.0971  13.0971
    15.5866  15.8143  18.7700  19.6358

          k =-0.6500 0.0000 0.0000 (  1150 PWs)   bands (ev):

    -4.0026   1.3040   3.7764   3.7764   6.8281   8.1522  13.2497  13.2497
    15.7645  15.9173  18.9241  19.6324

          k =-0.6667 0.0000 0.0000 (  1150 PWs)   bands (ev):

    -3.9103   1.1554   3.7322   3.7322   6.7971   8.0507  13.4029  13.4029
    15.9418  16.0229  19.0710  19.6044

          k =-0.6833 0.0000 0.0000 (  1150 PWs)   bands (ev):

    -3.8159   1.0071   3.6900   3.6900   6.7686   7.9528  13.5566  13.5566
    16.1185  16.1311  19.2094  19.5523

          k =-0.7000 0.0000 0.0000 (  1158 PWs)   bands (ev):

    -3.7194   0.8593   3.6500   3.6500   6.7427   7.8583  13.7109  13.7109
    16.2420  16.2944  19.3377  19.4777

          k =-0.7167 0.0000 0.0000 (  1150 PWs)   bands (ev):

    -3.6209   0.7121   3.6120   3.6120   6.7195   7.7674  13.8657  13.8657
    16.3555  16.4692  19.3836  19.3836

          k =-0.7333 0.0000 0.0000 (  1150 PWs)   bands (ev):

    -3.5204   0.5654   3.5761   3.5761   6.6989   7.6801  14.0210  14.0210
    16.4716  16.6428  19.2731  19.2731

          k =-0.7500 0.0000 0.0000 (  1150 PWs)   bands (ev):

    -3.4178   0.4193   3.5423   3.5423   6.6811   7.5963  14.1768  14.1768
    16.5903  16.8150  19.1493  19.1493

          k =-0.7667 0.0000 0.0000 (  1150 PWs)   bands (ev):

    -3.3133   0.2739   3.5107   3.5107   6.6660   7.5162  14.3330  14.3330
    16.7116  16.9858  19.0150  19.0150

          k =-0.7833 0.0000 0.0000 (  1154 PWs)   bands (ev):

    -3.2068   0.1292   3.4812   3.4812   6.6537   7.4396  14.4895  14.4895
    16.8356  17.1548  18.8726  18.8726

          k =-0.8000 0.0000 0.0000 (  1154 PWs)   bands (ev):

    -3.0985  -0.0147   3.4538   3.4538   6.6443   7.3667  14.6463  14.6463
    16.9621  17.3221  18.7241  18.7241

          k =-0.8167 0.0000 0.0000 (  1154 PWs)   bands (ev):

    -2.9882  -0.1577   3.4286   3.4286   6.6378   7.2974  14.8031  14.8031
    17.0912  17.4873  18.5712  18.5712

          k =-0.8333 0.0000 0.0000 (  1146 PWs)   bands (ev):

    -2.8761  -0.2999   3.4056   3.4056   6.6341   7.2316  14.9600  14.9600
    17.2230  17.6504  18.4153  18.4153

          k =-0.8500 0.0000 0.0000 (  1154 PWs)   bands (ev):

    -2.7621  -0.4410   3.3847   3.3847   6.6335   7.1695  15.1165  15.1165
    17.3573  17.8112  18.2575  18.2575

          k =-0.8667 0.0000 0.0000 (  1154 PWs)   bands (ev):

    -2.6464  -0.5812   3.3660   3.3660   6.6359   7.1109  15.2724  15.2724
    17.4941  17.9693  18.0990  18.0990

          k =-0.8833 0.0000 0.0000 (  1154 PWs)   bands (ev):

    -2.5289  -0.7203   3.3495   3.3495   6.6413   7.0558  15.4270  15.4270
    17.6336  17.9409  17.9409  18.1247

          k =-0.9000 0.0000 0.0000 (  1154 PWs)   bands (ev):

    -2.4096  -0.8583   3.3352   3.3352   6.6498   7.0043  15.5796  15.5796
    17.7756  17.7846  17.7846  18.2769

          k =-0.9167 0.0000 0.0000 (  1154 PWs)   bands (ev):

    -2.2887  -0.9951   3.3231   3.3231   6.6614   6.9562  15.7287  15.7287
    17.6318  17.6318  17.9202  18.4259

          k =-0.9333 0.0000 0.0000 (  1162 PWs)   bands (ev):

    -2.1661  -1.1307   3.3132   3.3132   6.6762   6.9116  15.8719  15.8719
    17.4852  17.4852  18.0673  18.5710

          k =-0.9500 0.0000 0.0000 (  1162 PWs)   bands (ev):

    -2.0419  -1.2651   3.3055   3.3055   6.6941   6.8705  16.0050  16.0050
    17.3493  17.3493  18.2170  18.7121

          k =-0.9667 0.0000 0.0000 (  1162 PWs)   bands (ev):

    -1.9162  -1.3981   3.3000   3.3000   6.7153   6.8327  16.1198  16.1198
    17.2324  17.2324  18.3692  18.8486

          k =-0.9833 0.0000 0.0000 (  1162 PWs)   bands (ev):

    -1.7888  -1.5298   3.2966   3.2966   6.7397   6.7984  16.2022  16.2022
    17.1487  17.1487  18.5239  18.8409

          k =-1.0000 0.0000 0.0000 (  1162 PWs)   bands (ev):

    -1.6600  -1.6600   3.2955   3.2955   6.7674   6.7674  16.2331  16.2331
    17.1173  17.1173  18.6812  18.6812

          k =-1.0000 0.0167 0.0167 (  1162 PWs)   bands (ev):

    -1.6610  -1.6574   3.2780   3.2975   6.7696   6.7928  16.2056  16.2182
    17.0771  17.0859  18.7104  18.7120

          k =-1.0000 0.0333 0.0333 (  1156 PWs)   bands (ev):

    -1.6639  -1.6495   3.2272   3.3034   6.7765   6.8677  16.1267  16.1742
    16.9658  16.9985  18.7944  18.7978

          k =-1.0000 0.0500 0.0500 (  1156 PWs)   bands (ev):

    -1.6688  -1.6364   3.1476   3.3132   6.7879   6.9874  16.0056  16.1039
    16.8033  16.8695  18.9239  18.9240

          k =-1.0000 0.0667 0.0667 (  1152 PWs)   bands (ev):

    -1.6762  -1.6180   3.0452   3.3270   6.8038   7.1463  15.8529  16.0107
    16.6085  16.7130  19.0765  19.0883

          k =-1.0000 0.0833 0.0833 (  1142 PWs)   bands (ev):

    -1.6862  -1.5943   2.9266   3.3446   6.8242   7.3381  15.6778  15.8987
    16.3944  16.5392  19.2452  19.2781

          k =-1.0000 0.1000 0.1000 (  1146 PWs)   bands (ev):

    -1.6995  -1.5654   2.7978   3.3661   6.8492   7.5573  15.4875  15.7714
    16.1693  16.3549  19.4232  19.4860

          k =-1.0000 0.1167 0.1167 (  1142 PWs)   bands (ev):

    -1.7165  -1.5312   2.6640   3.3914   6.8786   7.7991  15.2871  15.6322
    15.9384  16.1643  19.6063  19.6764

          k =-1.0000 0.1333 0.1333 (  1150 PWs)   bands (ev):

    -1.7379  -1.4918   2.5295   3.4206   6.9124   8.0598  15.0803  15.4840
    15.7050  15.9703  19.7917  19.8149

          k =-1.0000 0.1500 0.1500 (  1154 PWs)   bands (ev):

    -1.7643  -1.4472   2.3981   3.4534   6.9506   8.3362  14.8696  15.3289
    15.4713  15.7750  19.9585  19.9773

          k =-1.0000 0.1667 0.1667 (  1152 PWs)   bands (ev):

    -1.7966  -1.3973   2.2725   3.4900   6.9932   8.6261  14.6570  15.1690
    15.2387  15.5796  20.1049  20.1620

          k =-1.0000 0.1833 0.1833 (  1152 PWs)   bands (ev):

    -1.8355  -1.3423   2.1555   3.5303   7.0400   8.9275  14.4438  15.0056
    15.0083  15.3854  20.2520  20.3449

          k =-1.0000 0.2000 0.2000 (  1144 PWs)   bands (ev):

    -1.8815  -1.2820   2.0490   3.5741   7.0910   9.2388  14.2310  14.7808
    14.8400  15.1930  20.3972  20.5255

          k =-1.0000 0.2167 0.2167 (  1144 PWs)   bands (ev):

    -1.9353  -1.2165   1.9546   3.6214   7.1461   9.5586  14.0194  14.5569
    14.6733  15.0032  20.5372  20.7032

          k =-1.0000 0.2333 0.2333 (  1144 PWs)   bands (ev):

    -1.9973  -1.1458   1.8736   3.6721   7.2052   9.8856  13.8097  14.3374
    14.5063  14.8165  20.6661  20.8780

          k =-1.0000 0.2500 0.2500 (  1144 PWs)   bands (ev):

    -2.0677  -1.0700   1.8069   3.7261   7.2683  10.2188  13.6022  14.1228
    14.3397  14.6335  20.7723  21.0497

          k =-0.7500 0.0000 0.7500 (  1144 PWs)   bands (ev):

    -2.0677  -1.0700   1.8069   3.7261   7.2683  10.2188  13.6022  14.1228
    14.3397  14.6335  20.7723  21.0497

          k =-0.7333 0.0000 0.7333 (  1144 PWs)   bands (ev):

    -2.1464  -0.9889   1.7550   3.7834   7.3351  10.5565  13.3975  13.9141
    14.1743  14.4544  20.8325  21.2184

          k =-0.7167 0.0000 0.7167 (  1142 PWs)   bands (ev):

    -2.2332  -0.9028   1.7181   3.8438   7.4057  10.8971  13.1957  13.7127
    14.0105  14.2798  20.8145  21.3842

          k =-0.7000 0.0000 0.7000 (  1142 PWs)   bands (ev):

    -2.3277  -0.8115   1.6960   3.9071   7.4797  11.2375  12.9972  13.5210
    13.8489  14.1099  20.7148  21.3329

          k =-0.6833 0.0000 0.6833 (  1141 PWs)   bands (ev):

    -2.4292  -0.7151   1.6885   3.9733   7.5571  11.5720  12.8021  13.3442
    13.6900  13.9451  20.5651  21.1364

          k =-0.6667 0.0000 0.6667 (  1141 PWs)   bands (ev):

    -2.5368  -0.6136   1.6949   4.0422   7.6376  11.8874  12.6107  13.1950
    13.5341  13.7857  20.3931  20.9429

          k =-0.6500 0.0000 0.6500 (  1141 PWs)   bands (ev):

    -2.6498  -0.5070   1.7146   4.1137   7.7210  12.1481  12.4231  13.1085
    13.3817  13.6320  20.2125  20.7537

          k =-0.6333 0.0000 0.6333 (  1141 PWs)   bands (ev):

    -2.7672  -0.3953   1.7468   4.1874   7.8070  12.2394  12.2789  13.1591
    13.2331  13.4843  20.0295  20.5699

          k =-0.6167 0.0000 0.6167 (  1147 PWs)   bands (ev):

    -2.8881  -0.2786   1.7907   4.2633   7.8953  12.0598  12.2516  13.0889
    13.3429  13.3741  19.8471  20.3924

          k =-0.6000 0.0000 0.6000 (  1145 PWs)   bands (ev):

    -3.0117  -0.1569   1.8455   4.3411   7.9857  11.8844  12.1402  12.9494
    13.2081  13.6785  19.6670  20.2223

          k =-0.5833 0.0000 0.5833 (  1141 PWs)   bands (ev):

    -3.1371  -0.0302   1.9106   4.4206   8.0776  11.7132  11.9984  12.8151
    13.0802  14.0173  19.4899  20.0609

          k =-0.5667 0.0000 0.5667 (  1151 PWs)   bands (ev):

    -3.2636   0.1014   1.9851   4.5016   8.1707  11.5463  11.8461  12.6863
    12.9596  14.3686  19.3164  19.9097

          k =-0.5500 0.0000 0.5500 (  1147 PWs)   bands (ev):

    -3.3905   0.2380   2.0684   4.5837   8.2643  11.3838  11.6910  12.5636
    12.8465  14.7224  19.1465  19.7709

          k =-0.5333 0.0000 0.5333 (  1147 PWs)   bands (ev):

    -3.5171   0.3795   2.1600   4.6667   8.3579  11.2257  11.5363  12.4475
    12.7412  15.0719  18.9800  19.6476

          k =-0.5167 0.0000 0.5167 (  1155 PWs)   bands (ev):

    -3.6430   0.5258   2.2591   4.7502   8.4508  11.0722  11.3838  12.3385
    12.6441  15.4108  18.8159  19.5438

          k =-0.5000 0.0000 0.5000 (  1159 PWs)   bands (ev):

    -3.7676   0.6769   2.3653   4.8340   8.5422  10.9232  11.2342  12.2373
    12.5556  15.7318  18.6515  19.3251

          k =-0.4833 0.0000 0.4833 (  1147 PWs)   bands (ev):

    -3.8904   0.8328   2.4781   4.9177   8.6313  10.7788  11.0880  12.1445
    12.4759  16.0256  18.4784  18.9518

          k =-0.4667 0.0000 0.4667 (  1147 PWs)   bands (ev):

    -4.0112   0.9935   2.5971   5.0009   8.7170  10.6391  10.9457  12.0607
    12.4054  16.2811  18.2703  18.6228

          k =-0.4500 0.0000 0.4500 (  1151 PWs)   bands (ev):

    -4.1296   1.1588   2.7218   5.0833   8.7984  10.5040  10.8073  11.9865
    12.3445  16.4867  17.9848  18.3813

          k =-0.4333 0.0000 0.4333 (  1151 PWs)   bands (ev):

    -4.2452   1.3287   2.8518   5.1644   8.8743  10.3737  10.6731  11.9226
    12.2935  16.6334  17.6401  18.2101

          k =-0.4167 0.0000 0.4167 (  1155 PWs)   bands (ev):

    -4.3578   1.5031   2.9867   5.2439   8.9437  10.2480  10.5430  11.8693
    12.2527  16.7185  17.2770  18.0694

          k =-0.4000 0.0000 0.4000 (  1151 PWs)   bands (ev):

    -4.4672   1.6821   3.1261   5.3215   9.0055  10.1272  10.4172  11.8269
    12.2224  16.7467  16.9117  17.9439

          k =-0.3833 0.0000 0.3833 (  1155 PWs)   bands (ev):

    -4.5732   1.8654   3.2697   5.3967   9.0588  10.0111  10.2957  11.7952
    12.2030  16.5502  16.7272  17.8288

          k =-0.3667 0.0000 0.3667 (  1157 PWs)   bands (ev):

    -4.6756   2.0530   3.4170   5.4692   9.1032   9.8998  10.1784  11.7735
    12.1946  16.1957  16.6700  17.7226

          k =-0.3500 0.0000 0.3500 (  1153 PWs)   bands (ev):

    -4.7743   2.2448   3.5676   5.5387   9.1381   9.7934  10.0654  11.7603
    12.1975  15.8504  16.5837  17.6245

          k =-0.3333 0.0000 0.3333 (  1147 PWs)   bands (ev):

    -4.8690   2.4407   3.7212   5.6048   9.1636   9.6918   9.9566  11.7535
    12.2118  15.5170  16.4750  17.5343

          k =-0.3167 0.0000 0.3167 (  1149 PWs)   bands (ev):

    -4.9597   2.6405   3.8772   5.6674   9.1802   9.5951   9.8520  11.7497
    12.2376  15.1984  16.3485  17.4521

          k =-0.3000 0.0000 0.3000 (  1157 PWs)   bands (ev):

    -5.0463   2.8440   4.0351   5.7263   9.1883   9.5033   9.7515  11.7443
    12.2748  14.8981  16.2076  17.3780

          k =-0.2833 0.0000 0.2833 (  1157 PWs)   bands (ev):

    -5.1286   3.0511   4.1945   5.7812   9.1889   9.4163   9.6551  11.7316
    12.3234  14.6210  16.0551  17.3121

          k =-0.2667 0.0000 0.2667 (  1159 PWs)   bands (ev):

    -5.2067   3.2615   4.3547   5.8321   9.1831   9.3343   9.5628  11.7044
    12.3831  14.3727  15.8932  17.2547

          k =-0.2500 0.0000 0.2500 (  1159 PWs)   bands (ev):

    -5.2803   3.4749   4.5151   5.8789   9.1718   9.2572   9.4744  11.6550
    12.4536  14.1595  15.7240  17.2060

          k =-0.2333 0.0000 0.2333 (  1161 PWs)   bands (ev):

    -5.3494   3.6910   4.6750   5.9216   9.1560   9.1850   9.3899  11.5763
    12.5345  13.9870  15.5498  17.1663

          k =-0.2167 0.0000 0.2167 (  1161 PWs)   bands (ev):

    -5.4140   3.9093   4.8335   5.9604   9.1178   9.1366   9.3093  11.4642
    12.6251  13.8581  15.3728  17.1357

          k =-0.2000 0.0000 0.2000 (  1165 PWs)   bands (ev):

    -5.4740   4.1293   4.9898   5.9952   9.0555   9.1145   9.2325  11.3185
    12.7246  13.7718  15.1955  17.1144

          k =-0.1833 0.0000 0.1833 (  1165 PWs)   bands (ev):

    -5.5294   4.3503   5.1428   6.0263   8.9981   9.0901   9.1595  11.1437
    12.8321  13.7227  15.0202  17.1022

          k =-0.1667 0.0000 0.1667 (  1163 PWs)   bands (ev):

    -5.5801   4.5714   5.2914   6.0538   8.9458   9.0637   9.0904  10.9471
    12.9462  13.7031  14.8495  17.0990

          k =-0.1500 0.0000 0.1500 (  1169 PWs)   bands (ev):

    -5.6261   4.7914   5.4342   6.0779   8.8984   9.0253   9.0356  10.7369
    13.0656  13.7048  14.6859  17.1043

          k =-0.1333 0.0000 0.1333 (  1169 PWs)   bands (ev):

    -5.6673   5.0087   5.5697   6.0988   8.8559   8.9644   9.0053  10.5212
    13.1883  13.7207  14.5316  17.1174

          k =-0.1167 0.0000 0.1167 (  1177 PWs)   bands (ev):

    -5.7037   5.2213   5.6964   6.1167   8.8185   8.9079   8.9723  10.3081
    13.3119  13.7448  14.3890  17.1369

          k =-0.1000 0.0000 0.1000 (  1179 PWs)   bands (ev):

    -5.7353   5.4262   5.8122   6.1317   8.7860   8.8565   8.9355  10.1052
    13.4334  13.7724  14.2603  17.1613

          k =-0.0833 0.0000 0.0833 (  1179 PWs)   bands (ev):

    -5.7621   5.6195   5.9154   6.1441   8.7585   8.8107   8.8936   9.9206
    13.5494  13.8003  14.1475  17.1885

          k =-0.0667 0.0000 0.0667 (  1179 PWs)   bands (ev):

    -5.7841   5.7959   6.0037   6.1540   8.7361   8.7714   8.8462   9.7624
    13.6553  13.8258  14.0524  17.2161

          k =-0.0500 0.0000 0.0500 (  1173 PWs)   bands (ev):

    -5.8012   5.9481   6.0751   6.1615   8.7186   8.7394   8.7948   9.6373
    13.7461  13.8472  13.9766  17.2415

          k =-0.0333 0.0000 0.0333 (  1161 PWs)   bands (ev):

    -5.8134   6.0674   6.1278   6.1668   8.7061   8.7157   8.7459   9.5490
    13.8164  13.8632  13.9215  17.2619

          k =-0.0167 0.0000 0.0167 (  1145 PWs)   bands (ev):

    -5.8207   6.1443   6.1601   6.1700   8.6986   8.7010   8.7096   9.4974
    13.8611  13.8732  13.8881  17.2753

          k = 0.0000 0.0000 0.0000 (  1139 PWs)   bands (ev):

    -5.8231   6.1710   6.1710   6.1710   8.6961   8.6961   8.6961   9.4805
    13.8765  13.8765  13.8769  17.2799

     Writing all to output data dir ./silicon.save/ :
     XML data file, pseudopotentials, collected wavefunctions

     init_run     :      0.13s CPU      0.14s WALL (       1 calls)
     electrons    :     32.89s CPU     33.29s WALL (       1 calls)

     Called by init_run:
     wfcinit      :      0.00s CPU      0.00s WALL (       1 calls)
     wfcinit:atom :      0.01s CPU      0.01s WALL (     147 calls)
     wfcinit:wfcr :      0.81s CPU      0.83s WALL (     147 calls)
     potinit      :      0.01s CPU      0.01s WALL (       1 calls)
     hinit0       :      0.10s CPU      0.10s WALL (       1 calls)

     Called by electrons:
     c_bands      :     32.89s CPU     33.29s WALL (       1 calls)
     v_of_rho     :      0.01s CPU      0.01s WALL (       1 calls)
     v_h          :      0.00s CPU      0.00s WALL (       1 calls)
     v_xc         :      0.01s CPU      0.01s WALL (       1 calls)
     newd         :      0.01s CPU      0.01s WALL (       1 calls)

     Called by c_bands:
     init_us_2    :      0.02s CPU      0.02s WALL (     147 calls)
     cegterg      :     31.98s CPU     32.35s WALL (     450 calls)

     Called by sum_band:

     Called by *egterg:
     cdiaghg      :      0.92s CPU      0.94s WALL (    7829 calls)
     cegterg:over :      2.62s CPU      2.66s WALL (    7682 calls)
     cegterg:upda :      1.42s CPU      1.43s WALL (    7682 calls)
     cegterg:last :      3.92s CPU      3.95s WALL (    4539 calls)
     h_psi        :     22.24s CPU     22.52s WALL (    8279 calls)
     s_psi        :      0.98s CPU      0.99s WALL (    8279 calls)
     g_psi        :      0.19s CPU      0.19s WALL (    7682 calls)

     Called by h_psi:
     h_psi:calbec :      1.10s CPU      1.11s WALL (    8279 calls)
     vloc_psi     :     20.08s CPU     20.33s WALL (    8279 calls)
     add_vuspsi   :      0.98s CPU      0.99s WALL (    8279 calls)

     General routines
     calbec       :      1.08s CPU      1.10s WALL (    8279 calls)
     fft          :      0.00s CPU      0.00s WALL (      12 calls)
     fftw         :     17.99s CPU     18.21s WALL (  111838 calls)
     davcio       :      0.02s CPU      0.02s WALL (     294 calls)


     PWSCF        :     33.09s CPU     33.55s WALL


   This run was terminated on:  14:36: 1  22Dec2024            

=------------------------------------------------------------------------------=
   JOB DONE.
=------------------------------------------------------------------------------=
