
     Program PWSCF v.7.3.1 starts on 19Dec2024 at 20:31:36 

     This program is part of the open-source Quantum ESPRESSO suite
     for quantum simulation of materials; please cite
         "P. Giannozzi et al., J. Phys.:Condens. Matter 21 395502 (2009);
         "P. Giannozzi et al., J. Phys.:Condens. Matter 29 465901 (2017);
         "P. Giannozzi et al., J. Chem. Phys. 152 154105 (2020);
          URL http://www.quantum-espresso.org", 
     in publications or presentations arising from this work. More details at
     http://www.quantum-espresso.org/quote

     Serial version
     113594 MiB available memory on the printing compute node when the environment starts

     Waiting for input...
     Reading input from standard input

     Current dimensions of program PWSCF are:
     Max number of different atomic species (ntypx) = 10
     Max number of k-points (npk) =  40000
     Max angular momentum in pseudopotentials (lmaxx) =  4
     Message from routine input:
     WARNING: "startingwfc" set to atomic+random may spoil restart


     G-vector sticks info
     --------------------
     sticks:   dense  smooth     PW     G-vecs:    dense   smooth      PW
     Sum         583     583    169                 9257     9257    1471

     Using Slab Decomposition



     bravais-lattice index     =            2
     lattice parameter (alat)  =      10.2600  a.u.
     unit-cell volume          =     270.0114 (a.u.)^3
     number of atoms/cell      =            2
     number of atomic types    =            1
     number of electrons       =         8.00
     number of Kohn-Sham states=           12
     kinetic-energy cutoff     =      40.0000  Ry
     charge density cutoff     =     160.0000  Ry
     Exchange-correlation= PBESOL
                           (   1   4  10   8   0   0   0)

     celldm(1)=  10.260000  celldm(2)=   0.000000  celldm(3)=   0.000000
     celldm(4)=   0.000000  celldm(5)=   0.000000  celldm(6)=   0.000000

     crystal axes: (cart. coord. in units of alat)
               a(1) = (  -0.500000   0.000000   0.500000 )  
               a(2) = (   0.000000   0.500000   0.500000 )  
               a(3) = (  -0.500000   0.500000   0.000000 )  

     reciprocal axes: (cart. coord. in units 2 pi/alat)
               b(1) = ( -1.000000 -1.000000  1.000000 )  
               b(2) = (  1.000000  1.000000  1.000000 )  
               b(3) = ( -1.000000  1.000000 -1.000000 )  


     PseudoPot. # 1 for Si read from file:
     ./Si_pbesol.upf
     MD5 check sum: fe77d7a5829557c21112a27752452c0f
     Pseudo is Ultrasoft + core correction, Zval =  4.0
     Generated using "atomic" code by A. Dal Corso  v.5.0.2 svn rev. 9415
     Using radial grid of 1141 points,  4 beta functions with: 
                l(1) =   0
                l(2) =   0
                l(3) =   1
                l(4) =   1
     Q(r) pseudized with 0 coefficients 


     atomic species   valence    mass     pseudopotential
     Si                4.00    28.08550     Si( 1.00)

      6 Sym. Ops. (no inversion) found


                                    s                        frac. trans.

      isym =  1     identity                                     

 cryst.   s( 1) = (     1          0          0      )
                  (     0          1          0      )
                  (     0          0          1      )

 cart.    s( 1) = (  1.0000000  0.0000000  0.0000000 )
                  (  0.0000000  1.0000000  0.0000000 )
                  (  0.0000000  0.0000000  1.0000000 )


      isym =  2     120 deg rotation - cart. axis [-1,-1,-1]     

 cryst.   s( 2) = (    -1          0          1      )
                  (    -1          1          0      )
                  (    -1          0          0      )

 cart.    s( 2) = (  0.0000000  1.0000000  0.0000000 )
                  (  0.0000000  0.0000000  1.0000000 )
                  (  1.0000000  0.0000000  0.0000000 )


      isym =  3     120 deg rotation - cart. axis [1,1,1]        

 cryst.   s( 3) = (     0          0         -1      )
                  (     0          1         -1      )
                  (     1          0         -1      )

 cart.    s( 3) = (  0.0000000  0.0000000  1.0000000 )
                  (  1.0000000  0.0000000  0.0000000 )
                  (  0.0000000  1.0000000  0.0000000 )


      isym =  4     inv. 180 deg rotation - cart. axis [1,-1,0]  

 cryst.   s( 4) = (     1          0         -1      )
                  (     0          1         -1      )
                  (     0          0         -1      )

 cart.    s( 4) = (  0.0000000  1.0000000  0.0000000 )
                  (  1.0000000  0.0000000  0.0000000 )
                  (  0.0000000  0.0000000  1.0000000 )


      isym =  5     inv. 180 deg rotation - cart. axis [-1,0,1]  

 cryst.   s( 5) = (    -1          0          0      )
                  (    -1          1          0      )
                  (    -1          0          1      )

 cart.    s( 5) = (  0.0000000  0.0000000  1.0000000 )
                  (  0.0000000  1.0000000  0.0000000 )
                  (  1.0000000  0.0000000  0.0000000 )


      isym =  6     inv. 180 deg rotation - cart. axis [0,1,-1]  

 cryst.   s( 6) = (     0          0          1      )
                  (     0          1          0      )
                  (     1          0          0      )

 cart.    s( 6) = (  1.0000000  0.0000000  0.0000000 )
                  (  0.0000000  0.0000000  1.0000000 )
                  (  0.0000000  1.0000000  0.0000000 )


     point group C_3v (3m)  
     there are  3 classes
     the character table:

       E     2C3   3s_v 
A_1    1.00  1.00  1.00
A_2    1.00  1.00 -1.00
E      2.00 -1.00  0.00

     the symmetry operations in each class and the name of the first element:

     E        1
          identity                                               
     2C3      2    3
          120 deg rotation - cart. axis [-1,-1,-1]               
     3s_v     4    5    6
          inv. 180 deg rotation - cart. axis [1,-1,0]            

   Cartesian axes

     site n.     atom                  positions (alat units)
         1        Si     tau(   1) = (   0.0000000   0.0000000   0.0000000  )
         2        Si     tau(   2) = (   0.2506742   0.2506742   0.2506742  )

   Crystallographic axes

     site n.     atom                  positions (cryst. coord.)
         1        Si     tau(   1) = (  0.0000000  0.0000000  0.0000000  )
         2        Si     tau(   2) = ( -0.2506742  0.7520226 -0.2506742  )

     number of k points=   182
                       cart. coord. in units 2pi/alat
        k(    1) = (  -0.5000000   0.5000000   0.5000000), wk =   0.0109890
        k(    2) = (  -0.4888889   0.4888889   0.4888889), wk =   0.0109890
        k(    3) = (  -0.4777778   0.4777778   0.4777778), wk =   0.0109890
        k(    4) = (  -0.4666667   0.4666667   0.4666667), wk =   0.0109890
        k(    5) = (  -0.4555556   0.4555556   0.4555556), wk =   0.0109890
        k(    6) = (  -0.4444444   0.4444444   0.4444444), wk =   0.0109890
        k(    7) = (  -0.4333333   0.4333333   0.4333333), wk =   0.0109890
        k(    8) = (  -0.4222222   0.4222222   0.4222222), wk =   0.0109890
        k(    9) = (  -0.4111111   0.4111111   0.4111111), wk =   0.0109890
        k(   10) = (  -0.4000000   0.4000000   0.4000000), wk =   0.0109890
        k(   11) = (  -0.3888889   0.3888889   0.3888889), wk =   0.0109890
        k(   12) = (  -0.3777778   0.3777778   0.3777778), wk =   0.0109890
        k(   13) = (  -0.3666667   0.3666667   0.3666667), wk =   0.0109890
        k(   14) = (  -0.3555556   0.3555556   0.3555556), wk =   0.0109890
        k(   15) = (  -0.3444444   0.3444444   0.3444444), wk =   0.0109890
        k(   16) = (  -0.3333333   0.3333333   0.3333333), wk =   0.0109890
        k(   17) = (  -0.3222222   0.3222222   0.3222222), wk =   0.0109890
        k(   18) = (  -0.3111111   0.3111111   0.3111111), wk =   0.0109890
        k(   19) = (  -0.3000000   0.3000000   0.3000000), wk =   0.0109890
        k(   20) = (  -0.2888889   0.2888889   0.2888889), wk =   0.0109890
        k(   21) = (  -0.2777778   0.2777778   0.2777778), wk =   0.0109890
        k(   22) = (  -0.2666667   0.2666667   0.2666667), wk =   0.0109890
        k(   23) = (  -0.2555556   0.2555556   0.2555556), wk =   0.0109890
        k(   24) = (  -0.2444444   0.2444444   0.2444444), wk =   0.0109890
        k(   25) = (  -0.2333333   0.2333333   0.2333333), wk =   0.0109890
        k(   26) = (  -0.2222222   0.2222222   0.2222222), wk =   0.0109890
        k(   27) = (  -0.2111111   0.2111111   0.2111111), wk =   0.0109890
        k(   28) = (  -0.2000000   0.2000000   0.2000000), wk =   0.0109890
        k(   29) = (  -0.1888889   0.1888889   0.1888889), wk =   0.0109890
        k(   30) = (  -0.1777778   0.1777778   0.1777778), wk =   0.0109890
        k(   31) = (  -0.1666667   0.1666667   0.1666667), wk =   0.0109890
        k(   32) = (  -0.1555556   0.1555556   0.1555556), wk =   0.0109890
        k(   33) = (  -0.1444444   0.1444444   0.1444444), wk =   0.0109890
        k(   34) = (  -0.1333333   0.1333333   0.1333333), wk =   0.0109890
        k(   35) = (  -0.1222222   0.1222222   0.1222222), wk =   0.0109890
        k(   36) = (  -0.1111111   0.1111111   0.1111111), wk =   0.0109890
        k(   37) = (  -0.1000000   0.1000000   0.1000000), wk =   0.0109890
        k(   38) = (  -0.0888889   0.0888889   0.0888889), wk =   0.0109890
        k(   39) = (  -0.0777778   0.0777778   0.0777778), wk =   0.0109890
        k(   40) = (  -0.0666667   0.0666667   0.0666667), wk =   0.0109890
        k(   41) = (  -0.0555556   0.0555556   0.0555556), wk =   0.0109890
        k(   42) = (  -0.0444444   0.0444444   0.0444444), wk =   0.0109890
        k(   43) = (  -0.0333333   0.0333333   0.0333333), wk =   0.0109890
        k(   44) = (  -0.0222222   0.0222222   0.0222222), wk =   0.0109890
        k(   45) = (  -0.0111111   0.0111111   0.0111111), wk =   0.0109890
        k(   46) = (   0.0000000   0.0000000   0.0000000), wk =   0.0109890
        k(   47) = (  -0.0166667   0.0000000   0.0000000), wk =   0.0109890
        k(   48) = (  -0.0333333   0.0000000   0.0000000), wk =   0.0109890
        k(   49) = (  -0.0500000   0.0000000   0.0000000), wk =   0.0109890
        k(   50) = (  -0.0666667   0.0000000   0.0000000), wk =   0.0109890
        k(   51) = (  -0.0833333   0.0000000   0.0000000), wk =   0.0109890
        k(   52) = (  -0.1000000   0.0000000   0.0000000), wk =   0.0109890
        k(   53) = (  -0.1166667   0.0000000   0.0000000), wk =   0.0109890
        k(   54) = (  -0.1333333   0.0000000   0.0000000), wk =   0.0109890
        k(   55) = (  -0.1500000   0.0000000   0.0000000), wk =   0.0109890
        k(   56) = (  -0.1666667   0.0000000   0.0000000), wk =   0.0109890
        k(   57) = (  -0.1833333   0.0000000   0.0000000), wk =   0.0109890
        k(   58) = (  -0.2000000   0.0000000   0.0000000), wk =   0.0109890
        k(   59) = (  -0.2166667   0.0000000   0.0000000), wk =   0.0109890
        k(   60) = (  -0.2333333   0.0000000   0.0000000), wk =   0.0109890
        k(   61) = (  -0.2500000   0.0000000   0.0000000), wk =   0.0109890
        k(   62) = (  -0.2666667   0.0000000   0.0000000), wk =   0.0109890
        k(   63) = (  -0.2833333   0.0000000   0.0000000), wk =   0.0109890
        k(   64) = (  -0.3000000   0.0000000   0.0000000), wk =   0.0109890
        k(   65) = (  -0.3166667   0.0000000   0.0000000), wk =   0.0109890
        k(   66) = (  -0.3333333   0.0000000   0.0000000), wk =   0.0109890
        k(   67) = (  -0.3500000   0.0000000   0.0000000), wk =   0.0109890
        k(   68) = (  -0.3666667   0.0000000   0.0000000), wk =   0.0109890
        k(   69) = (  -0.3833333   0.0000000   0.0000000), wk =   0.0109890
        k(   70) = (  -0.4000000   0.0000000   0.0000000), wk =   0.0109890
        k(   71) = (  -0.4166667   0.0000000   0.0000000), wk =   0.0109890
        k(   72) = (  -0.4333333   0.0000000   0.0000000), wk =   0.0109890
        k(   73) = (  -0.4500000   0.0000000   0.0000000), wk =   0.0109890
        k(   74) = (  -0.4666667   0.0000000   0.0000000), wk =   0.0109890
        k(   75) = (  -0.4833333   0.0000000   0.0000000), wk =   0.0109890
        k(   76) = (  -0.5000000   0.0000000   0.0000000), wk =   0.0109890
        k(   77) = (  -0.5166667   0.0000000   0.0000000), wk =   0.0109890
        k(   78) = (  -0.5333333   0.0000000   0.0000000), wk =   0.0109890
        k(   79) = (  -0.5500000   0.0000000   0.0000000), wk =   0.0109890
        k(   80) = (  -0.5666667   0.0000000   0.0000000), wk =   0.0109890
        k(   81) = (  -0.5833333   0.0000000   0.0000000), wk =   0.0109890
        k(   82) = (  -0.6000000   0.0000000   0.0000000), wk =   0.0109890
        k(   83) = (  -0.6166667   0.0000000   0.0000000), wk =   0.0109890
        k(   84) = (  -0.6333333   0.0000000   0.0000000), wk =   0.0109890
        k(   85) = (  -0.6500000   0.0000000   0.0000000), wk =   0.0109890
        k(   86) = (  -0.6666667   0.0000000   0.0000000), wk =   0.0109890
        k(   87) = (  -0.6833333   0.0000000   0.0000000), wk =   0.0109890
        k(   88) = (  -0.7000000   0.0000000   0.0000000), wk =   0.0109890
        k(   89) = (  -0.7166667   0.0000000   0.0000000), wk =   0.0109890
        k(   90) = (  -0.7333333   0.0000000   0.0000000), wk =   0.0109890
        k(   91) = (  -0.7500000   0.0000000   0.0000000), wk =   0.0109890
        k(   92) = (  -0.7666667   0.0000000   0.0000000), wk =   0.0109890
        k(   93) = (  -0.7833333   0.0000000   0.0000000), wk =   0.0109890
        k(   94) = (  -0.8000000   0.0000000   0.0000000), wk =   0.0109890
        k(   95) = (  -0.8166667   0.0000000   0.0000000), wk =   0.0109890
        k(   96) = (  -0.8333333   0.0000000   0.0000000), wk =   0.0109890
        k(   97) = (  -0.8500000   0.0000000   0.0000000), wk =   0.0109890
        k(   98) = (  -0.8666667   0.0000000   0.0000000), wk =   0.0109890
        k(   99) = (  -0.8833333   0.0000000   0.0000000), wk =   0.0109890
        k(  100) = (  -0.9000000   0.0000000   0.0000000), wk =   0.0109890
        k(  101) = (  -0.9166667   0.0000000   0.0000000), wk =   0.0109890
        k(  102) = (  -0.9333333   0.0000000   0.0000000), wk =   0.0109890
        k(  103) = (  -0.9500000   0.0000000   0.0000000), wk =   0.0109890
        k(  104) = (  -0.9666667   0.0000000   0.0000000), wk =   0.0109890
        k(  105) = (  -0.9833333   0.0000000   0.0000000), wk =   0.0109890
        k(  106) = (  -1.0000000   0.0000000   0.0000000), wk =   0.0109890
        k(  107) = (  -1.0000000   0.0083333   0.0083333), wk =   0.0109890
        k(  108) = (  -1.0000000   0.0166667   0.0166667), wk =   0.0109890
        k(  109) = (  -1.0000000   0.0250000   0.0250000), wk =   0.0109890
        k(  110) = (  -1.0000000   0.0333333   0.0333333), wk =   0.0109890
        k(  111) = (  -1.0000000   0.0416667   0.0416667), wk =   0.0109890
        k(  112) = (  -1.0000000   0.0500000   0.0500000), wk =   0.0109890
        k(  113) = (  -1.0000000   0.0583333   0.0583333), wk =   0.0109890
        k(  114) = (  -1.0000000   0.0666667   0.0666667), wk =   0.0109890
        k(  115) = (  -1.0000000   0.0750000   0.0750000), wk =   0.0109890
        k(  116) = (  -1.0000000   0.0833333   0.0833333), wk =   0.0109890
        k(  117) = (  -1.0000000   0.0916667   0.0916667), wk =   0.0109890
        k(  118) = (  -1.0000000   0.1000000   0.1000000), wk =   0.0109890
        k(  119) = (  -1.0000000   0.1083333   0.1083333), wk =   0.0109890
        k(  120) = (  -1.0000000   0.1166667   0.1166667), wk =   0.0109890
        k(  121) = (  -1.0000000   0.1250000   0.1250000), wk =   0.0109890
        k(  122) = (  -1.0000000   0.1333333   0.1333333), wk =   0.0109890
        k(  123) = (  -1.0000000   0.1416667   0.1416667), wk =   0.0109890
        k(  124) = (  -1.0000000   0.1500000   0.1500000), wk =   0.0109890
        k(  125) = (  -1.0000000   0.1583333   0.1583333), wk =   0.0109890
        k(  126) = (  -1.0000000   0.1666667   0.1666667), wk =   0.0109890
        k(  127) = (  -1.0000000   0.1750000   0.1750000), wk =   0.0109890
        k(  128) = (  -1.0000000   0.1833333   0.1833333), wk =   0.0109890
        k(  129) = (  -1.0000000   0.1916667   0.1916667), wk =   0.0109890
        k(  130) = (  -1.0000000   0.2000000   0.2000000), wk =   0.0109890
        k(  131) = (  -1.0000000   0.2083333   0.2083333), wk =   0.0109890
        k(  132) = (  -1.0000000   0.2166667   0.2166667), wk =   0.0109890
        k(  133) = (  -1.0000000   0.2250000   0.2250000), wk =   0.0109890
        k(  134) = (  -1.0000000   0.2333333   0.2333333), wk =   0.0109890
        k(  135) = (  -1.0000000   0.2416667   0.2416667), wk =   0.0109890
        k(  136) = (  -1.0000000   0.2500000   0.2500000), wk =   0.0109890
        k(  137) = (  -0.7500000   0.0000000   0.7500000), wk =   0.0109890
        k(  138) = (  -0.7333333   0.0000000   0.7333333), wk =   0.0109890
        k(  139) = (  -0.7166667   0.0000000   0.7166667), wk =   0.0109890
        k(  140) = (  -0.7000000   0.0000000   0.7000000), wk =   0.0109890
        k(  141) = (  -0.6833333   0.0000000   0.6833333), wk =   0.0109890
        k(  142) = (  -0.6666667   0.0000000   0.6666667), wk =   0.0109890
        k(  143) = (  -0.6500000   0.0000000   0.6500000), wk =   0.0109890
        k(  144) = (  -0.6333333   0.0000000   0.6333333), wk =   0.0109890
        k(  145) = (  -0.6166667   0.0000000   0.6166667), wk =   0.0109890
        k(  146) = (  -0.6000000   0.0000000   0.6000000), wk =   0.0109890
        k(  147) = (  -0.5833333   0.0000000   0.5833333), wk =   0.0109890
        k(  148) = (  -0.5666667   0.0000000   0.5666667), wk =   0.0109890
        k(  149) = (  -0.5500000   0.0000000   0.5500000), wk =   0.0109890
        k(  150) = (  -0.5333333   0.0000000   0.5333333), wk =   0.0109890
        k(  151) = (  -0.5166667   0.0000000   0.5166667), wk =   0.0109890
        k(  152) = (  -0.5000000   0.0000000   0.5000000), wk =   0.0109890
        k(  153) = (  -0.4833333   0.0000000   0.4833333), wk =   0.0109890
        k(  154) = (  -0.4666667   0.0000000   0.4666667), wk =   0.0109890
        k(  155) = (  -0.4500000   0.0000000   0.4500000), wk =   0.0109890
        k(  156) = (  -0.4333333   0.0000000   0.4333333), wk =   0.0109890
        k(  157) = (  -0.4166667   0.0000000   0.4166667), wk =   0.0109890
        k(  158) = (  -0.4000000   0.0000000   0.4000000), wk =   0.0109890
        k(  159) = (  -0.3833333   0.0000000   0.3833333), wk =   0.0109890
        k(  160) = (  -0.3666667   0.0000000   0.3666667), wk =   0.0109890
        k(  161) = (  -0.3500000   0.0000000   0.3500000), wk =   0.0109890
        k(  162) = (  -0.3333333   0.0000000   0.3333333), wk =   0.0109890
        k(  163) = (  -0.3166667   0.0000000   0.3166667), wk =   0.0109890
        k(  164) = (  -0.3000000   0.0000000   0.3000000), wk =   0.0109890
        k(  165) = (  -0.2833333   0.0000000   0.2833333), wk =   0.0109890
        k(  166) = (  -0.2666667   0.0000000   0.2666667), wk =   0.0109890
        k(  167) = (  -0.2500000   0.0000000   0.2500000), wk =   0.0109890
        k(  168) = (  -0.2333333   0.0000000   0.2333333), wk =   0.0109890
        k(  169) = (  -0.2166667   0.0000000   0.2166667), wk =   0.0109890
        k(  170) = (  -0.2000000   0.0000000   0.2000000), wk =   0.0109890
        k(  171) = (  -0.1833333   0.0000000   0.1833333), wk =   0.0109890
        k(  172) = (  -0.1666667   0.0000000   0.1666667), wk =   0.0109890
        k(  173) = (  -0.1500000   0.0000000   0.1500000), wk =   0.0109890
        k(  174) = (  -0.1333333   0.0000000   0.1333333), wk =   0.0109890
        k(  175) = (  -0.1166667   0.0000000   0.1166667), wk =   0.0109890
        k(  176) = (  -0.1000000   0.0000000   0.1000000), wk =   0.0109890
        k(  177) = (  -0.0833333   0.0000000   0.0833333), wk =   0.0109890
        k(  178) = (  -0.0666667   0.0000000   0.0666667), wk =   0.0109890
        k(  179) = (  -0.0500000   0.0000000   0.0500000), wk =   0.0109890
        k(  180) = (  -0.0333333   0.0000000   0.0333333), wk =   0.0109890
        k(  181) = (  -0.0166667   0.0000000   0.0166667), wk =   0.0109890
        k(  182) = (   0.0000000   0.0000000   0.0000000), wk =   0.0109890

                       cryst. coord.
        k(    1) = (   0.5000000   0.5000000   0.5000000), wk =   0.0109890
        k(    2) = (   0.4888889   0.4888889   0.4888889), wk =   0.0109890
        k(    3) = (   0.4777778   0.4777778   0.4777778), wk =   0.0109890
        k(    4) = (   0.4666667   0.4666667   0.4666667), wk =   0.0109890
        k(    5) = (   0.4555556   0.4555556   0.4555556), wk =   0.0109890
        k(    6) = (   0.4444444   0.4444444   0.4444444), wk =   0.0109890
        k(    7) = (   0.4333333   0.4333333   0.4333333), wk =   0.0109890
        k(    8) = (   0.4222222   0.4222222   0.4222222), wk =   0.0109890
        k(    9) = (   0.4111111   0.4111111   0.4111111), wk =   0.0109890
        k(   10) = (   0.4000000   0.4000000   0.4000000), wk =   0.0109890
        k(   11) = (   0.3888889   0.3888889   0.3888889), wk =   0.0109890
        k(   12) = (   0.3777778   0.3777778   0.3777778), wk =   0.0109890
        k(   13) = (   0.3666667   0.3666667   0.3666667), wk =   0.0109890
        k(   14) = (   0.3555556   0.3555556   0.3555556), wk =   0.0109890
        k(   15) = (   0.3444444   0.3444444   0.3444444), wk =   0.0109890
        k(   16) = (   0.3333333   0.3333333   0.3333333), wk =   0.0109890
        k(   17) = (   0.3222222   0.3222222   0.3222222), wk =   0.0109890
        k(   18) = (   0.3111111   0.3111111   0.3111111), wk =   0.0109890
        k(   19) = (   0.3000000   0.3000000   0.3000000), wk =   0.0109890
        k(   20) = (   0.2888889   0.2888889   0.2888889), wk =   0.0109890
        k(   21) = (   0.2777778   0.2777778   0.2777778), wk =   0.0109890
        k(   22) = (   0.2666667   0.2666667   0.2666667), wk =   0.0109890
        k(   23) = (   0.2555556   0.2555556   0.2555556), wk =   0.0109890
        k(   24) = (   0.2444444   0.2444444   0.2444444), wk =   0.0109890
        k(   25) = (   0.2333333   0.2333333   0.2333333), wk =   0.0109890
        k(   26) = (   0.2222222   0.2222222   0.2222222), wk =   0.0109890
        k(   27) = (   0.2111111   0.2111111   0.2111111), wk =   0.0109890
        k(   28) = (   0.2000000   0.2000000   0.2000000), wk =   0.0109890
        k(   29) = (   0.1888889   0.1888889   0.1888889), wk =   0.0109890
        k(   30) = (   0.1777778   0.1777778   0.1777778), wk =   0.0109890
        k(   31) = (   0.1666667   0.1666667   0.1666667), wk =   0.0109890
        k(   32) = (   0.1555556   0.1555556   0.1555556), wk =   0.0109890
        k(   33) = (   0.1444444   0.1444444   0.1444444), wk =   0.0109890
        k(   34) = (   0.1333333   0.1333333   0.1333333), wk =   0.0109890
        k(   35) = (   0.1222222   0.1222222   0.1222222), wk =   0.0109890
        k(   36) = (   0.1111111   0.1111111   0.1111111), wk =   0.0109890
        k(   37) = (   0.1000000   0.1000000   0.1000000), wk =   0.0109890
        k(   38) = (   0.0888889   0.0888889   0.0888889), wk =   0.0109890
        k(   39) = (   0.0777778   0.0777778   0.0777778), wk =   0.0109890
        k(   40) = (   0.0666667   0.0666667   0.0666667), wk =   0.0109890
        k(   41) = (   0.0555556   0.0555556   0.0555556), wk =   0.0109890
        k(   42) = (   0.0444444   0.0444444   0.0444444), wk =   0.0109890
        k(   43) = (   0.0333333   0.0333333   0.0333333), wk =   0.0109890
        k(   44) = (   0.0222222   0.0222222   0.0222222), wk =   0.0109890
        k(   45) = (   0.0111111   0.0111111   0.0111111), wk =   0.0109890
        k(   46) = (   0.0000000   0.0000000   0.0000000), wk =   0.0109890
        k(   47) = (   0.0083333   0.0000000   0.0083333), wk =   0.0109890
        k(   48) = (   0.0166667   0.0000000   0.0166667), wk =   0.0109890
        k(   49) = (   0.0250000   0.0000000   0.0250000), wk =   0.0109890
        k(   50) = (   0.0333333   0.0000000   0.0333333), wk =   0.0109890
        k(   51) = (   0.0416667   0.0000000   0.0416667), wk =   0.0109890
        k(   52) = (   0.0500000   0.0000000   0.0500000), wk =   0.0109890
        k(   53) = (   0.0583333   0.0000000   0.0583333), wk =   0.0109890
        k(   54) = (   0.0666667   0.0000000   0.0666667), wk =   0.0109890
        k(   55) = (   0.0750000   0.0000000   0.0750000), wk =   0.0109890
        k(   56) = (   0.0833333   0.0000000   0.0833333), wk =   0.0109890
        k(   57) = (   0.0916667   0.0000000   0.0916667), wk =   0.0109890
        k(   58) = (   0.1000000   0.0000000   0.1000000), wk =   0.0109890
        k(   59) = (   0.1083333   0.0000000   0.1083333), wk =   0.0109890
        k(   60) = (   0.1166667   0.0000000   0.1166667), wk =   0.0109890
        k(   61) = (   0.1250000   0.0000000   0.1250000), wk =   0.0109890
        k(   62) = (   0.1333333   0.0000000   0.1333333), wk =   0.0109890
        k(   63) = (   0.1416667   0.0000000   0.1416667), wk =   0.0109890
        k(   64) = (   0.1500000   0.0000000   0.1500000), wk =   0.0109890
        k(   65) = (   0.1583333   0.0000000   0.1583333), wk =   0.0109890
        k(   66) = (   0.1666667   0.0000000   0.1666667), wk =   0.0109890
        k(   67) = (   0.1750000   0.0000000   0.1750000), wk =   0.0109890
        k(   68) = (   0.1833333   0.0000000   0.1833333), wk =   0.0109890
        k(   69) = (   0.1916667   0.0000000   0.1916667), wk =   0.0109890
        k(   70) = (   0.2000000   0.0000000   0.2000000), wk =   0.0109890
        k(   71) = (   0.2083333   0.0000000   0.2083333), wk =   0.0109890
        k(   72) = (   0.2166667   0.0000000   0.2166667), wk =   0.0109890
        k(   73) = (   0.2250000   0.0000000   0.2250000), wk =   0.0109890
        k(   74) = (   0.2333333   0.0000000   0.2333333), wk =   0.0109890
        k(   75) = (   0.2416667   0.0000000   0.2416667), wk =   0.0109890
        k(   76) = (   0.2500000   0.0000000   0.2500000), wk =   0.0109890
        k(   77) = (   0.2583333   0.0000000   0.2583333), wk =   0.0109890
        k(   78) = (   0.2666667   0.0000000   0.2666667), wk =   0.0109890
        k(   79) = (   0.2750000   0.0000000   0.2750000), wk =   0.0109890
        k(   80) = (   0.2833333   0.0000000   0.2833333), wk =   0.0109890
        k(   81) = (   0.2916667   0.0000000   0.2916667), wk =   0.0109890
        k(   82) = (   0.3000000   0.0000000   0.3000000), wk =   0.0109890
        k(   83) = (   0.3083333   0.0000000   0.3083333), wk =   0.0109890
        k(   84) = (   0.3166667   0.0000000   0.3166667), wk =   0.0109890
        k(   85) = (   0.3250000   0.0000000   0.3250000), wk =   0.0109890
        k(   86) = (   0.3333333   0.0000000   0.3333333), wk =   0.0109890
        k(   87) = (   0.3416667   0.0000000   0.3416667), wk =   0.0109890
        k(   88) = (   0.3500000   0.0000000   0.3500000), wk =   0.0109890
        k(   89) = (   0.3583333   0.0000000   0.3583333), wk =   0.0109890
        k(   90) = (   0.3666667   0.0000000   0.3666667), wk =   0.0109890
        k(   91) = (   0.3750000   0.0000000   0.3750000), wk =   0.0109890
        k(   92) = (   0.3833333   0.0000000   0.3833333), wk =   0.0109890
        k(   93) = (   0.3916667   0.0000000   0.3916667), wk =   0.0109890
        k(   94) = (   0.4000000   0.0000000   0.4000000), wk =   0.0109890
        k(   95) = (   0.4083333   0.0000000   0.4083333), wk =   0.0109890
        k(   96) = (   0.4166667   0.0000000   0.4166667), wk =   0.0109890
        k(   97) = (   0.4250000   0.0000000   0.4250000), wk =   0.0109890
        k(   98) = (   0.4333333   0.0000000   0.4333333), wk =   0.0109890
        k(   99) = (   0.4416667   0.0000000   0.4416667), wk =   0.0109890
        k(  100) = (   0.4500000   0.0000000   0.4500000), wk =   0.0109890
        k(  101) = (   0.4583333   0.0000000   0.4583333), wk =   0.0109890
        k(  102) = (   0.4666667   0.0000000   0.4666667), wk =   0.0109890
        k(  103) = (   0.4750000   0.0000000   0.4750000), wk =   0.0109890
        k(  104) = (   0.4833333   0.0000000   0.4833333), wk =   0.0109890
        k(  105) = (   0.4916667   0.0000000   0.4916667), wk =   0.0109890
        k(  106) = (   0.5000000   0.0000000   0.5000000), wk =   0.0109890
        k(  107) = (   0.5041667   0.0083333   0.5041667), wk =   0.0109890
        k(  108) = (   0.5083333   0.0166667   0.5083333), wk =   0.0109890
        k(  109) = (   0.5125000   0.0250000   0.5125000), wk =   0.0109890
        k(  110) = (   0.5166667   0.0333333   0.5166667), wk =   0.0109890
        k(  111) = (   0.5208333   0.0416667   0.5208333), wk =   0.0109890
        k(  112) = (   0.5250000   0.0500000   0.5250000), wk =   0.0109890
        k(  113) = (   0.5291667   0.0583333   0.5291667), wk =   0.0109890
        k(  114) = (   0.5333333   0.0666667   0.5333333), wk =   0.0109890
        k(  115) = (   0.5375000   0.0750000   0.5375000), wk =   0.0109890
        k(  116) = (   0.5416667   0.0833333   0.5416667), wk =   0.0109890
        k(  117) = (   0.5458333   0.0916667   0.5458333), wk =   0.0109890
        k(  118) = (   0.5500000   0.1000000   0.5500000), wk =   0.0109890
        k(  119) = (   0.5541667   0.1083333   0.5541667), wk =   0.0109890
        k(  120) = (   0.5583333   0.1166667   0.5583333), wk =   0.0109890
        k(  121) = (   0.5625000   0.1250000   0.5625000), wk =   0.0109890
        k(  122) = (   0.5666667   0.1333333   0.5666667), wk =   0.0109890
        k(  123) = (   0.5708333   0.1416667   0.5708333), wk =   0.0109890
        k(  124) = (   0.5750000   0.1500000   0.5750000), wk =   0.0109890
        k(  125) = (   0.5791667   0.1583333   0.5791667), wk =   0.0109890
        k(  126) = (   0.5833333   0.1666667   0.5833333), wk =   0.0109890
        k(  127) = (   0.5875000   0.1750000   0.5875000), wk =   0.0109890
        k(  128) = (   0.5916667   0.1833333   0.5916667), wk =   0.0109890
        k(  129) = (   0.5958333   0.1916667   0.5958333), wk =   0.0109890
        k(  130) = (   0.6000000   0.2000000   0.6000000), wk =   0.0109890
        k(  131) = (   0.6041667   0.2083333   0.6041667), wk =   0.0109890
        k(  132) = (   0.6083333   0.2166667   0.6083333), wk =   0.0109890
        k(  133) = (   0.6125000   0.2250000   0.6125000), wk =   0.0109890
        k(  134) = (   0.6166667   0.2333333   0.6166667), wk =   0.0109890
        k(  135) = (   0.6208333   0.2416667   0.6208333), wk =   0.0109890
        k(  136) = (   0.6250000   0.2500000   0.6250000), wk =   0.0109890
        k(  137) = (   0.7500000   0.3750000   0.3750000), wk =   0.0109890
        k(  138) = (   0.7333333   0.3666667   0.3666667), wk =   0.0109890
        k(  139) = (   0.7166667   0.3583333   0.3583333), wk =   0.0109890
        k(  140) = (   0.7000000   0.3500000   0.3500000), wk =   0.0109890
        k(  141) = (   0.6833333   0.3416667   0.3416667), wk =   0.0109890
        k(  142) = (   0.6666667   0.3333333   0.3333333), wk =   0.0109890
        k(  143) = (   0.6500000   0.3250000   0.3250000), wk =   0.0109890
        k(  144) = (   0.6333333   0.3166667   0.3166667), wk =   0.0109890
        k(  145) = (   0.6166667   0.3083333   0.3083333), wk =   0.0109890
        k(  146) = (   0.6000000   0.3000000   0.3000000), wk =   0.0109890
        k(  147) = (   0.5833333   0.2916667   0.2916667), wk =   0.0109890
        k(  148) = (   0.5666667   0.2833333   0.2833333), wk =   0.0109890
        k(  149) = (   0.5500000   0.2750000   0.2750000), wk =   0.0109890
        k(  150) = (   0.5333333   0.2666667   0.2666667), wk =   0.0109890
        k(  151) = (   0.5166667   0.2583333   0.2583333), wk =   0.0109890
        k(  152) = (   0.5000000   0.2500000   0.2500000), wk =   0.0109890
        k(  153) = (   0.4833333   0.2416667   0.2416667), wk =   0.0109890
        k(  154) = (   0.4666667   0.2333333   0.2333333), wk =   0.0109890
        k(  155) = (   0.4500000   0.2250000   0.2250000), wk =   0.0109890
        k(  156) = (   0.4333333   0.2166667   0.2166667), wk =   0.0109890
        k(  157) = (   0.4166667   0.2083333   0.2083333), wk =   0.0109890
        k(  158) = (   0.4000000   0.2000000   0.2000000), wk =   0.0109890
        k(  159) = (   0.3833333   0.1916667   0.1916667), wk =   0.0109890
        k(  160) = (   0.3666667   0.1833333   0.1833333), wk =   0.0109890
        k(  161) = (   0.3500000   0.1750000   0.1750000), wk =   0.0109890
        k(  162) = (   0.3333333   0.1666667   0.1666667), wk =   0.0109890
        k(  163) = (   0.3166667   0.1583333   0.1583333), wk =   0.0109890
        k(  164) = (   0.3000000   0.1500000   0.1500000), wk =   0.0109890
        k(  165) = (   0.2833333   0.1416667   0.1416667), wk =   0.0109890
        k(  166) = (   0.2666667   0.1333333   0.1333333), wk =   0.0109890
        k(  167) = (   0.2500000   0.1250000   0.1250000), wk =   0.0109890
        k(  168) = (   0.2333333   0.1166667   0.1166667), wk =   0.0109890
        k(  169) = (   0.2166667   0.1083333   0.1083333), wk =   0.0109890
        k(  170) = (   0.2000000   0.1000000   0.1000000), wk =   0.0109890
        k(  171) = (   0.1833333   0.0916667   0.0916667), wk =   0.0109890
        k(  172) = (   0.1666667   0.0833333   0.0833333), wk =   0.0109890
        k(  173) = (   0.1500000   0.0750000   0.0750000), wk =   0.0109890
        k(  174) = (   0.1333333   0.0666667   0.0666667), wk =   0.0109890
        k(  175) = (   0.1166667   0.0583333   0.0583333), wk =   0.0109890
        k(  176) = (   0.1000000   0.0500000   0.0500000), wk =   0.0109890
        k(  177) = (   0.0833333   0.0416667   0.0416667), wk =   0.0109890
        k(  178) = (   0.0666667   0.0333333   0.0333333), wk =   0.0109890
        k(  179) = (   0.0500000   0.0250000   0.0250000), wk =   0.0109890
        k(  180) = (   0.0333333   0.0166667   0.0166667), wk =   0.0109890
        k(  181) = (   0.0166667   0.0083333   0.0083333), wk =   0.0109890
        k(  182) = (   0.0000000   0.0000000   0.0000000), wk =   0.0109890

     Dense  grid:     9257 G-vectors     FFT dimensions: (  30,  30,  30)

     Dynamical RAM for                 wfc:       0.21 MB

     Dynamical RAM for     wfc (w. buffer):       0.21 MB

     Dynamical RAM for           str. fact:       0.14 MB

     Dynamical RAM for           local pot:       0.00 MB

     Dynamical RAM for          nlocal pot:       0.28 MB

     Dynamical RAM for                qrad:       0.29 MB

     Dynamical RAM for          rho,v,vnew:       1.04 MB

     Dynamical RAM for           G-vectors:       0.60 MB

     Dynamical RAM for          h,s,v(r/c):       0.03 MB

     Dynamical RAM for          <psi|beta>:       0.00 MB

     Dynamical RAM for                 psi:       0.42 MB

     Dynamical RAM for                hpsi:       0.42 MB

     Dynamical RAM for                spsi:       0.42 MB

     Dynamical RAM for      wfcinit/wfcrot:       0.43 MB

     Dynamical RAM for           addusdens:       6.36 MB

     Estimated static dynamical RAM per process >       3.88 MB

     Estimated max dynamical RAM per process >      10.24 MB

     Atomic positions and unit cell read from directory:
     ./silicon.save/
     Atomic positions from file used, from input discarded


     Check: negative core charge=   -0.000003

     The potential is recalculated from file :
     ./silicon.save/charge-density

     Starting wfcs are    8 randomized atomic wfcs +    4 random wfcs

     Band Structure Calculation
     Davidson diagonalization with overlap

     Computing kpt #:     1  of   182
     total cpu time spent up to now is        0.6 secs

     Computing kpt #:     2  of   182
     total cpu time spent up to now is        1.0 secs

     Computing kpt #:     3  of   182
     c_bands:  1 eigenvalues not converged
     total cpu time spent up to now is        1.3 secs

     Computing kpt #:     4  of   182
     total cpu time spent up to now is        1.6 secs

     Computing kpt #:     5  of   182
     total cpu time spent up to now is        1.9 secs

     Computing kpt #:     6  of   182
     c_bands:  1 eigenvalues not converged
     total cpu time spent up to now is        2.3 secs

     Computing kpt #:     7  of   182
     c_bands:  1 eigenvalues not converged
     total cpu time spent up to now is        2.6 secs

     Computing kpt #:     8  of   182
     c_bands:  1 eigenvalues not converged
     total cpu time spent up to now is        3.0 secs

     Computing kpt #:     9  of   182
     c_bands:  1 eigenvalues not converged
     total cpu time spent up to now is        3.3 secs

     Computing kpt #:    10  of   182
     c_bands:  1 eigenvalues not converged
     total cpu time spent up to now is        3.6 secs

     Computing kpt #:    11  of   182
     c_bands:  1 eigenvalues not converged
     total cpu time spent up to now is        4.0 secs

     Computing kpt #:    12  of   182
     c_bands:  1 eigenvalues not converged
     total cpu time spent up to now is        4.4 secs

     Computing kpt #:    13  of   182
     total cpu time spent up to now is        4.6 secs

     Computing kpt #:    14  of   182
     total cpu time spent up to now is        4.9 secs

     Computing kpt #:    15  of   182
     total cpu time spent up to now is        5.1 secs

     Computing kpt #:    16  of   182
     total cpu time spent up to now is        5.4 secs

     Computing kpt #:    17  of   182
     total cpu time spent up to now is        5.6 secs

     Computing kpt #:    18  of   182
     total cpu time spent up to now is        5.8 secs

     Computing kpt #:    19  of   182
     total cpu time spent up to now is        6.1 secs

     Computing kpt #:    20  of   182
     total cpu time spent up to now is        6.3 secs

     Computing kpt #:    21  of   182
     total cpu time spent up to now is        6.6 secs

     Computing kpt #:    22  of   182
     total cpu time spent up to now is        6.8 secs

     Computing kpt #:    23  of   182
     total cpu time spent up to now is        7.0 secs

     Computing kpt #:    24  of   182
     total cpu time spent up to now is        7.2 secs

     Computing kpt #:    25  of   182
     total cpu time spent up to now is        7.5 secs

     Computing kpt #:    26  of   182
     total cpu time spent up to now is        7.7 secs

     Computing kpt #:    27  of   182
     total cpu time spent up to now is        7.9 secs

     Computing kpt #:    28  of   182
     total cpu time spent up to now is        8.1 secs

     Computing kpt #:    29  of   182
     total cpu time spent up to now is        8.3 secs

     Computing kpt #:    30  of   182
     total cpu time spent up to now is        8.6 secs

     Computing kpt #:    31  of   182
     total cpu time spent up to now is        8.8 secs

     Computing kpt #:    32  of   182
     total cpu time spent up to now is        9.0 secs

     Computing kpt #:    33  of   182
     total cpu time spent up to now is        9.2 secs

     Computing kpt #:    34  of   182
     total cpu time spent up to now is        9.4 secs

     Computing kpt #:    35  of   182
     total cpu time spent up to now is        9.6 secs

     Computing kpt #:    36  of   182
     total cpu time spent up to now is        9.8 secs

     Computing kpt #:    37  of   182
     total cpu time spent up to now is       10.0 secs

     Computing kpt #:    38  of   182
     total cpu time spent up to now is       10.3 secs

     Computing kpt #:    39  of   182
     total cpu time spent up to now is       10.5 secs

     Computing kpt #:    40  of   182
     total cpu time spent up to now is       10.7 secs

     Computing kpt #:    41  of   182
     total cpu time spent up to now is       11.0 secs

     Computing kpt #:    42  of   182
     total cpu time spent up to now is       11.3 secs

     Computing kpt #:    43  of   182
     total cpu time spent up to now is       11.6 secs

     Computing kpt #:    44  of   182
     total cpu time spent up to now is       11.8 secs

     Computing kpt #:    45  of   182
     total cpu time spent up to now is       12.1 secs

     Computing kpt #:    46  of   182
     total cpu time spent up to now is       12.4 secs

     Computing kpt #:    47  of   182
     total cpu time spent up to now is       12.8 secs

     Computing kpt #:    48  of   182
     c_bands:  1 eigenvalues not converged
     total cpu time spent up to now is       13.3 secs

     Computing kpt #:    49  of   182
     c_bands:  1 eigenvalues not converged
     total cpu time spent up to now is       14.1 secs

     Computing kpt #:    50  of   182
     c_bands:  1 eigenvalues not converged
     total cpu time spent up to now is       14.9 secs

     Computing kpt #:    51  of   182
     c_bands:  1 eigenvalues not converged
     total cpu time spent up to now is       15.6 secs

     Computing kpt #:    52  of   182
     c_bands:  1 eigenvalues not converged
     total cpu time spent up to now is       16.0 secs

     Computing kpt #:    53  of   182
     c_bands:  1 eigenvalues not converged
     total cpu time spent up to now is       16.3 secs

     Computing kpt #:    54  of   182
     c_bands:  1 eigenvalues not converged
     total cpu time spent up to now is       16.7 secs

     Computing kpt #:    55  of   182
     total cpu time spent up to now is       16.9 secs

     Computing kpt #:    56  of   182
     total cpu time spent up to now is       17.2 secs

     Computing kpt #:    57  of   182
     total cpu time spent up to now is       17.5 secs

     Computing kpt #:    58  of   182
     total cpu time spent up to now is       17.8 secs

     Computing kpt #:    59  of   182
     total cpu time spent up to now is       18.0 secs

     Computing kpt #:    60  of   182
     total cpu time spent up to now is       18.2 secs

     Computing kpt #:    61  of   182
     total cpu time spent up to now is       18.5 secs

     Computing kpt #:    62  of   182
     c_bands:  1 eigenvalues not converged
     total cpu time spent up to now is       18.8 secs

     Computing kpt #:    63  of   182
     total cpu time spent up to now is       19.2 secs

     Computing kpt #:    64  of   182
     total cpu time spent up to now is       19.4 secs

     Computing kpt #:    65  of   182
     total cpu time spent up to now is       19.7 secs

     Computing kpt #:    66  of   182
     total cpu time spent up to now is       20.0 secs

     Computing kpt #:    67  of   182
     total cpu time spent up to now is       20.3 secs

     Computing kpt #:    68  of   182
     total cpu time spent up to now is       20.6 secs

     Computing kpt #:    69  of   182
     c_bands:  1 eigenvalues not converged
     total cpu time spent up to now is       21.0 secs

     Computing kpt #:    70  of   182
     c_bands:  1 eigenvalues not converged
     total cpu time spent up to now is       21.3 secs

     Computing kpt #:    71  of   182
     c_bands:  1 eigenvalues not converged
     total cpu time spent up to now is       21.7 secs

     Computing kpt #:    72  of   182
     c_bands:  1 eigenvalues not converged
     total cpu time spent up to now is       22.0 secs

     Computing kpt #:    73  of   182
     c_bands:  1 eigenvalues not converged
     total cpu time spent up to now is       22.4 secs

     Computing kpt #:    74  of   182
     c_bands:  1 eigenvalues not converged
     total cpu time spent up to now is       22.7 secs

     Computing kpt #:    75  of   182
     c_bands:  1 eigenvalues not converged
     total cpu time spent up to now is       23.1 secs

     Computing kpt #:    76  of   182
     total cpu time spent up to now is       23.3 secs

     Computing kpt #:    77  of   182
     total cpu time spent up to now is       23.6 secs

     Computing kpt #:    78  of   182
     c_bands:  1 eigenvalues not converged
     total cpu time spent up to now is       24.0 secs

     Computing kpt #:    79  of   182
     c_bands:  1 eigenvalues not converged
     total cpu time spent up to now is       24.3 secs

     Computing kpt #:    80  of   182
     c_bands:  1 eigenvalues not converged
     total cpu time spent up to now is       24.7 secs

     Computing kpt #:    81  of   182
     c_bands:  1 eigenvalues not converged
     total cpu time spent up to now is       25.0 secs

     Computing kpt #:    82  of   182
     c_bands:  1 eigenvalues not converged
     total cpu time spent up to now is       25.4 secs

     Computing kpt #:    83  of   182
     c_bands:  1 eigenvalues not converged
     total cpu time spent up to now is       25.8 secs

     Computing kpt #:    84  of   182
     total cpu time spent up to now is       26.1 secs

     Computing kpt #:    85  of   182
     c_bands:  1 eigenvalues not converged
     total cpu time spent up to now is       26.4 secs

     Computing kpt #:    86  of   182
     c_bands:  1 eigenvalues not converged
     total cpu time spent up to now is       26.8 secs

     Computing kpt #:    87  of   182
     c_bands:  1 eigenvalues not converged
     total cpu time spent up to now is       27.2 secs

     Computing kpt #:    88  of   182
     c_bands:  1 eigenvalues not converged
     total cpu time spent up to now is       27.6 secs

     Computing kpt #:    89  of   182
     c_bands:  2 eigenvalues not converged
     total cpu time spent up to now is       28.1 secs

     Computing kpt #:    90  of   182
     total cpu time spent up to now is       28.5 secs

     Computing kpt #:    91  of   182
     total cpu time spent up to now is       28.8 secs

     Computing kpt #:    92  of   182
     total cpu time spent up to now is       29.1 secs

     Computing kpt #:    93  of   182
     total cpu time spent up to now is       29.4 secs

     Computing kpt #:    94  of   182
     total cpu time spent up to now is       29.8 secs

     Computing kpt #:    95  of   182
     total cpu time spent up to now is       30.1 secs

     Computing kpt #:    96  of   182
     total cpu time spent up to now is       30.4 secs

     Computing kpt #:    97  of   182
     total cpu time spent up to now is       30.7 secs

     Computing kpt #:    98  of   182
     total cpu time spent up to now is       31.0 secs

     Computing kpt #:    99  of   182
     total cpu time spent up to now is       31.4 secs

     Computing kpt #:   100  of   182
     total cpu time spent up to now is       31.7 secs

     Computing kpt #:   101  of   182
     total cpu time spent up to now is       32.1 secs

     Computing kpt #:   102  of   182
     total cpu time spent up to now is       32.4 secs

     Computing kpt #:   103  of   182
     total cpu time spent up to now is       32.7 secs

     Computing kpt #:   104  of   182
     total cpu time spent up to now is       33.0 secs

     Computing kpt #:   105  of   182
     total cpu time spent up to now is       33.3 secs

     Computing kpt #:   106  of   182
     total cpu time spent up to now is       33.6 secs

     Computing kpt #:   107  of   182
     total cpu time spent up to now is       34.0 secs

     Computing kpt #:   108  of   182
     total cpu time spent up to now is       34.3 secs

     Computing kpt #:   109  of   182
     total cpu time spent up to now is       34.6 secs

     Computing kpt #:   110  of   182
     total cpu time spent up to now is       35.0 secs

     Computing kpt #:   111  of   182
     total cpu time spent up to now is       35.3 secs

     Computing kpt #:   112  of   182
     total cpu time spent up to now is       35.6 secs

     Computing kpt #:   113  of   182
     total cpu time spent up to now is       35.9 secs

     Computing kpt #:   114  of   182
     total cpu time spent up to now is       36.3 secs

     Computing kpt #:   115  of   182
     total cpu time spent up to now is       36.6 secs

     Computing kpt #:   116  of   182
     total cpu time spent up to now is       36.9 secs

     Computing kpt #:   117  of   182
     total cpu time spent up to now is       37.2 secs

     Computing kpt #:   118  of   182
     total cpu time spent up to now is       37.6 secs

     Computing kpt #:   119  of   182
     c_bands:  2 eigenvalues not converged
     total cpu time spent up to now is       38.0 secs

     Computing kpt #:   120  of   182
     c_bands:  2 eigenvalues not converged
     total cpu time spent up to now is       38.4 secs

     Computing kpt #:   121  of   182
     total cpu time spent up to now is       38.8 secs

     Computing kpt #:   122  of   182
     total cpu time spent up to now is       39.1 secs

     Computing kpt #:   123  of   182
     total cpu time spent up to now is       39.5 secs

     Computing kpt #:   124  of   182
     total cpu time spent up to now is       39.8 secs

     Computing kpt #:   125  of   182
     total cpu time spent up to now is       40.2 secs

     Computing kpt #:   126  of   182
     total cpu time spent up to now is       40.5 secs

     Computing kpt #:   127  of   182
     total cpu time spent up to now is       40.8 secs

     Computing kpt #:   128  of   182
     total cpu time spent up to now is       41.1 secs

     Computing kpt #:   129  of   182
     total cpu time spent up to now is       41.4 secs

     Computing kpt #:   130  of   182
     total cpu time spent up to now is       41.7 secs

     Computing kpt #:   131  of   182
     total cpu time spent up to now is       42.0 secs

     Computing kpt #:   132  of   182
     total cpu time spent up to now is       42.3 secs

     Computing kpt #:   133  of   182
     total cpu time spent up to now is       42.6 secs

     Computing kpt #:   134  of   182
     total cpu time spent up to now is       42.9 secs

     Computing kpt #:   135  of   182
     total cpu time spent up to now is       43.2 secs

     Computing kpt #:   136  of   182
     total cpu time spent up to now is       43.5 secs

     Computing kpt #:   137  of   182
     total cpu time spent up to now is       43.7 secs

     Computing kpt #:   138  of   182
     total cpu time spent up to now is       44.0 secs

     Computing kpt #:   139  of   182
     total cpu time spent up to now is       44.4 secs

     Computing kpt #:   140  of   182
     total cpu time spent up to now is       44.6 secs

     Computing kpt #:   141  of   182
     total cpu time spent up to now is       44.9 secs

     Computing kpt #:   142  of   182
     total cpu time spent up to now is       45.1 secs

     Computing kpt #:   143  of   182
     total cpu time spent up to now is       45.3 secs

     Computing kpt #:   144  of   182
     total cpu time spent up to now is       45.6 secs

     Computing kpt #:   145  of   182
     total cpu time spent up to now is       45.8 secs

     Computing kpt #:   146  of   182
     total cpu time spent up to now is       46.0 secs

     Computing kpt #:   147  of   182
     total cpu time spent up to now is       46.3 secs

     Computing kpt #:   148  of   182
     total cpu time spent up to now is       46.5 secs

     Computing kpt #:   149  of   182
     total cpu time spent up to now is       46.7 secs

     Computing kpt #:   150  of   182
     total cpu time spent up to now is       47.0 secs

     Computing kpt #:   151  of   182
     total cpu time spent up to now is       47.2 secs

     Computing kpt #:   152  of   182
     total cpu time spent up to now is       47.4 secs

     Computing kpt #:   153  of   182
     total cpu time spent up to now is       47.6 secs

     Computing kpt #:   154  of   182
     total cpu time spent up to now is       47.8 secs

     Computing kpt #:   155  of   182
     total cpu time spent up to now is       48.0 secs

     Computing kpt #:   156  of   182
     total cpu time spent up to now is       48.2 secs

     Computing kpt #:   157  of   182
     total cpu time spent up to now is       48.4 secs

     Computing kpt #:   158  of   182
     total cpu time spent up to now is       48.6 secs

     Computing kpt #:   159  of   182
     total cpu time spent up to now is       48.8 secs

     Computing kpt #:   160  of   182
     total cpu time spent up to now is       49.0 secs

     Computing kpt #:   161  of   182
     total cpu time spent up to now is       49.2 secs

     Computing kpt #:   162  of   182
     total cpu time spent up to now is       49.4 secs

     Computing kpt #:   163  of   182
     total cpu time spent up to now is       49.6 secs

     Computing kpt #:   164  of   182
     total cpu time spent up to now is       49.8 secs

     Computing kpt #:   165  of   182
     total cpu time spent up to now is       50.0 secs

     Computing kpt #:   166  of   182
     total cpu time spent up to now is       50.2 secs

     Computing kpt #:   167  of   182
     total cpu time spent up to now is       50.4 secs

     Computing kpt #:   168  of   182
     total cpu time spent up to now is       50.6 secs

     Computing kpt #:   169  of   182
     total cpu time spent up to now is       50.8 secs

     Computing kpt #:   170  of   182
     total cpu time spent up to now is       51.0 secs

     Computing kpt #:   171  of   182
     total cpu time spent up to now is       51.3 secs

     Computing kpt #:   172  of   182
     total cpu time spent up to now is       51.5 secs

     Computing kpt #:   173  of   182
     total cpu time spent up to now is       51.7 secs

     Computing kpt #:   174  of   182
     total cpu time spent up to now is       51.9 secs

     Computing kpt #:   175  of   182
     total cpu time spent up to now is       52.2 secs

     Computing kpt #:   176  of   182
     total cpu time spent up to now is       52.4 secs

     Computing kpt #:   177  of   182
     total cpu time spent up to now is       52.7 secs

     Computing kpt #:   178  of   182
     total cpu time spent up to now is       52.9 secs

     Computing kpt #:   179  of   182
     total cpu time spent up to now is       53.1 secs

     Computing kpt #:   180  of   182
     total cpu time spent up to now is       53.4 secs

     Computing kpt #:   181  of   182
     total cpu time spent up to now is       53.6 secs

     Computing kpt #:   182  of   182
     total cpu time spent up to now is       53.8 secs

     ethr =  1.25E-11,  avg # of iterations = 70.5

     total cpu time spent up to now is       53.8 secs

     End of band structure calculation

          k =-0.5000 0.5000 0.5000 (  1158 PWs)   bands (ev):

    -3.4714  -0.8464   4.9668   4.9671   7.6371   9.4539   9.4543  13.6926
    16.6975  16.6976  17.3814  17.4548

          k =-0.4889 0.4889 0.4889 (  1164 PWs)   bands (ev):

    -3.4786  -0.8361   4.9677   4.9679   7.6381   9.4550   9.4553  13.6943
    16.6330  16.6330  17.3543  17.5230

          k =-0.4778 0.4778 0.4778 (  1164 PWs)   bands (ev):

    -3.5001  -0.8054   4.9703   4.9706   7.6412   9.4582   9.4585  13.6993
    16.4821  16.4821  17.2776  17.6851

          k =-0.4667 0.4667 0.4667 (  1164 PWs)   bands (ev):

    -3.5347  -0.7555   4.9747   4.9750   7.6463   9.4635   9.4638  13.7076
    16.2966  16.2967  17.1621  17.8892

          k =-0.4556 0.4556 0.4556 (  1164 PWs)   bands (ev):

    -3.5811  -0.6876   4.9809   4.9812   7.6535   9.4708   9.4711  13.7191
    16.0990  16.0991  17.0194  18.1127

          k =-0.4444 0.4444 0.4444 (  1161 PWs)   bands (ev):

    -3.6376  -0.6037   4.9889   4.9891   7.6627   9.4800   9.4804  13.7336
    15.8981  15.8982  16.8586  18.3468

          k =-0.4333 0.4333 0.4333 (  1155 PWs)   bands (ev):

    -3.7023  -0.5053   4.9986   4.9989   7.6739   9.4910   9.4914  13.7508
    15.6977  15.6978  16.6860  18.5875

          k =-0.4222 0.4222 0.4222 (  1155 PWs)   bands (ev):

    -3.7736  -0.3943   5.0101   5.0103   7.6872   9.5036   9.5040  13.7704
    15.4998  15.5000  16.5063  18.8326

          k =-0.4111 0.4111 0.4111 (  1155 PWs)   bands (ev):

    -3.8500  -0.2721   5.0233   5.0236   7.7024   9.5177   9.5180  13.7919
    15.3057  15.3059  16.3226  19.0807

          k =-0.4000 0.4000 0.4000 (  1149 PWs)   bands (ev):

    -3.9302  -0.1401   5.0383   5.0386   7.7197   9.5328   9.5332  13.8147
    15.1163  15.1164  16.1374  19.3302

          k =-0.3889 0.3889 0.3889 (  1155 PWs)   bands (ev):

    -4.0130   0.0005   5.0550   5.0553   7.7389   9.5489   9.5493  13.8379
    14.9320  14.9321  15.9529  19.5801

          k =-0.3778 0.3778 0.3778 (  1155 PWs)   bands (ev):

    -4.0975   0.1487   5.0735   5.0738   7.7601   9.5655   9.5659  13.8599
    14.7537  14.7538  15.7712  19.8284

          k =-0.3667 0.3667 0.3667 (  1155 PWs)   bands (ev):

    -4.1828   0.3039   5.0937   5.0940   7.7832   9.5824   9.5827  13.8791
    14.5818  14.5819  15.5949  20.0661

          k =-0.3556 0.3556 0.3556 (  1155 PWs)   bands (ev):

    -4.2684   0.4651   5.1157   5.1159   7.8083   9.5989   9.5992  13.8923
    14.4169  14.4170  15.4271  19.9620

          k =-0.3444 0.3444 0.3444 (  1149 PWs)   bands (ev):

    -4.3538   0.6319   5.1393   5.1396   7.8352   9.6147   9.6151  13.8957
    14.2595  14.2597  15.2721  19.8098

          k =-0.3333 0.3333 0.3333 (  1149 PWs)   bands (ev):

    -4.4383   0.8038   5.1646   5.1649   7.8640   9.6293   9.6297  13.8834
    14.1104  14.1105  15.1355  19.6208

          k =-0.3222 0.3222 0.3222 (  1152 PWs)   bands (ev):

    -4.5218   0.9803   5.1917   5.1919   7.8946   9.6421   9.6424  13.8489
    13.9700  13.9701  15.0241  19.4059

          k =-0.3111 0.3111 0.3111 (  1155 PWs)   bands (ev):

    -4.6038   1.1611   5.2203   5.2206   7.9269   9.6524   9.6527  13.7863
    13.8391  13.8392  14.9433  19.1743

          k =-0.3000 0.3000 0.3000 (  1155 PWs)   bands (ev):

    -4.6841   1.3459   5.2506   5.2508   7.9610   9.6596   9.6599  13.6933
    13.7183  13.7184  14.8953  18.9327

          k =-0.2889 0.2889 0.2889 (  1161 PWs)   bands (ev):

    -4.7625   1.5342   5.2824   5.2827   7.9966   9.6631   9.6634  13.5724
    13.6083  13.6084  14.8771  18.6862

          k =-0.2778 0.2778 0.2778 (  1164 PWs)   bands (ev):

    -4.8388   1.7259   5.3158   5.3160   8.0339   9.6622   9.6625  13.4292
    13.5096  13.5098  14.8825  18.4390

          k =-0.2667 0.2667 0.2667 (  1164 PWs)   bands (ev):

    -4.9128   1.9207   5.3506   5.3509   8.0725   9.6564   9.6567  13.2695
    13.4230  13.4231  14.9048  18.1940

          k =-0.2556 0.2556 0.2556 (  1158 PWs)   bands (ev):

    -4.9845   2.1184   5.3868   5.3871   8.1126   9.6451   9.6454  13.0982
    13.3489  13.3490  14.9382  17.9543

          k =-0.2444 0.2444 0.2444 (  1158 PWs)   bands (ev):

    -5.0536   2.3187   5.4244   5.4247   8.1539   9.6279   9.6282  12.9187
    13.2876  13.2877  14.9777  17.7226

          k =-0.2333 0.2333 0.2333 (  1158 PWs)   bands (ev):

    -5.1201   2.5214   5.4633   5.4636   8.1962   9.6047   9.6050  12.7335
    13.2393  13.2394  15.0190  17.5019

          k =-0.2222 0.2222 0.2222 (  1164 PWs)   bands (ev):

    -5.1840   2.7262   5.5033   5.5036   8.2396   9.5753   9.5756  12.5440
    13.2042  13.2042  15.0578  17.2958

          k =-0.2111 0.2111 0.2111 (  1167 PWs)   bands (ev):

    -5.2450   2.9328   5.5443   5.5446   8.2836   9.5399   9.5402  12.3515
    13.1818  13.1819  15.0894  17.1085

          k =-0.2000 0.2000 0.2000 (  1167 PWs)   bands (ev):

    -5.3032   3.1410   5.5863   5.5866   8.3282   9.4988   9.4991  12.1567
    13.1720  13.1721  15.1087  16.9451

          k =-0.1889 0.1889 0.1889 (  1167 PWs)   bands (ev):

    -5.3585   3.3505   5.6290   5.6293   8.3731   9.4525   9.4528  11.9603
    13.1741  13.1741  15.1098  16.8112

          k =-0.1778 0.1778 0.1778 (  1167 PWs)   bands (ev):

    -5.4109   3.5609   5.6723   5.6726   8.4180   9.4017   9.4019  11.7630
    13.1872  13.1873  15.0878  16.7117

          k =-0.1667 0.1667 0.1667 (  1167 PWs)   bands (ev):

    -5.4602   3.7718   5.7159   5.7162   8.4626   9.3470   9.3473  11.5651
    13.2106  13.2107  15.0401  16.6495

          k =-0.1556 0.1556 0.1556 (  1173 PWs)   bands (ev):

    -5.5066   3.9827   5.7597   5.7600   8.5065   9.2895   9.2897  11.3672
    13.2432  13.2433  14.9677  16.6232

          k =-0.1444 0.1444 0.1444 (  1173 PWs)   bands (ev):

    -5.5498   4.1931   5.8034   5.8037   8.5491   9.2299   9.2302  11.1701
    13.2839  13.2839  14.8754  16.6282

          k =-0.1333 0.1333 0.1333 (  1173 PWs)   bands (ev):

    -5.5900   4.4024   5.8466   5.8469   8.5900   9.1693   9.1696  10.9745
    13.3314  13.3314  14.7696  16.6579

          k =-0.1222 0.1222 0.1222 (  1173 PWs)   bands (ev):

    -5.6270   4.6097   5.8890   5.8893   8.6286   9.1087   9.1089  10.7814
    13.3844  13.3844  14.6567  16.7056

          k =-0.1111 0.1111 0.1111 (  1167 PWs)   bands (ev):

    -5.6609   4.8141   5.9302   5.9305   8.6640   9.0489   9.0491  10.5922
    13.4417  13.4417  14.5420  16.7657

          k =-0.1000 0.1000 0.1000 (  1179 PWs)   bands (ev):

    -5.6916   5.0143   5.9698   5.9701   8.6953   8.9909   8.9911  10.4084
    13.5016  13.5016  14.4298  16.8334

          k =-0.0889 0.0889 0.0889 (  1179 PWs)   bands (ev):

    -5.7191   5.2087   6.0073   6.0076   8.7214   8.9358   8.9360  10.2324
    13.5626  13.5626  14.3233  16.9049

          k =-0.0778 0.0778 0.0778 (  1185 PWs)   bands (ev):

    -5.7434   5.3953   6.0422   6.0426   8.7410   8.8844   8.8846  10.0670
    13.6231  13.6231  14.2248  16.9769

          k =-0.0667 0.0667 0.0667 (  1179 PWs)   bands (ev):

    -5.7645   5.5715   6.0740   6.0744   8.7527   8.8376   8.8378   9.9157
    13.6812  13.6812  14.1363  17.0466

          k =-0.0556 0.0556 0.0556 (  1167 PWs)   bands (ev):

    -5.7824   5.7339   6.1022   6.1025   8.7553   8.7963   8.7965   9.7826
    13.7350  13.7350  14.0592  17.1111

          k =-0.0444 0.0444 0.0444 (  1164 PWs)   bands (ev):

    -5.7971   5.8784   6.1261   6.1264   8.7485   8.7613   8.7615   9.6717
    13.7826  13.7826  13.9947  17.1681

          k =-0.0333 0.0333 0.0333 (  1157 PWs)   bands (ev):

    -5.8084   5.9999   6.1453   6.1456   8.7332   8.7335   8.7340   9.5860
    13.8222  13.8222  13.9436  17.2153

          k =-0.0222 0.0222 0.0222 (  1157 PWs)   bands (ev):

    -5.8166   6.0926   6.1593   6.1597   8.7128   8.7130   8.7163   9.5264
    13.8519  13.8519  13.9067  17.2506

          k =-0.0111 0.0111 0.0111 (  1142 PWs)   bands (ev):

    -5.8215   6.1511   6.1679   6.1682   8.7003   8.7005   8.7017   9.4919
    13.8703  13.8703  13.8843  17.2724

          k = 0.0000 0.0000 0.0000 (  1139 PWs)   bands (ev):

    -5.8231   6.1707   6.1711   6.1711   8.6961   8.6961   8.6963   9.4806
    13.8765  13.8765  13.8768  17.2798

          k =-0.0167 0.0000 0.0000 (  1139 PWs)   bands (ev):

    -5.8219   6.1625   6.1654   6.1657   8.6929   8.7030   8.7032   9.4890
    13.8658  13.8779  13.8825  17.2820

          k =-0.0333 0.0000 0.0000 (  1155 PWs)   bands (ev):

    -5.8182   6.1372   6.1493   6.1495   8.6833   8.7236   8.7238   9.5137
    13.8341  13.8819  13.8993  17.2884

          k =-0.0500 0.0000 0.0000 (  1163 PWs)   bands (ev):

    -5.8121   6.0960   6.1230   6.1232   8.6675   8.7574   8.7576   9.5540
    13.7827  13.8887  13.9271  17.2991

          k =-0.0667 0.0000 0.0000 (  1167 PWs)   bands (ev):

    -5.8036   6.0399   6.0873   6.0875   8.6456   8.8035   8.8037   9.6084
    13.7136  13.8981  13.9657  17.3140

          k =-0.0833 0.0000 0.0000 (  1171 PWs)   bands (ev):

    -5.7926   5.9705   6.0432   6.0434   8.6180   8.8610   8.8611   9.6752
    13.6293  13.9102  14.0149  17.3333

          k =-0.1000 0.0000 0.0000 (  1171 PWs)   bands (ev):

    -5.7791   5.8892   5.9918   5.9920   8.5851   8.9287   8.9289   9.7526
    13.5326  13.9250  14.0741  17.3568

          k =-0.1167 0.0000 0.0000 (  1175 PWs)   bands (ev):

    -5.7633   5.7975   5.9342   5.9344   8.5471   9.0057   9.0058   9.8383
    13.4263  13.9425  14.1431  17.3845

          k =-0.1333 0.0000 0.0000 (  1171 PWs)   bands (ev):

    -5.7450   5.6969   5.8714   5.8716   8.5047   9.0907   9.0908   9.9302
    13.3134  13.9627  14.2214  17.4165

          k =-0.1500 0.0000 0.0000 (  1171 PWs)   bands (ev):

    -5.7242   5.5887   5.8043   5.8045   8.4582   9.1829   9.1831  10.0259
    13.1967  13.9856  14.3084  17.4528

          k =-0.1667 0.0000 0.0000 (  1163 PWs)   bands (ev):

    -5.7011   5.4740   5.7339   5.7341   8.4081   9.2815   9.2816  10.1229
    13.0795  14.0111  14.4037  17.4932

          k =-0.1833 0.0000 0.0000 (  1163 PWs)   bands (ev):

    -5.6755   5.3539   5.6607   5.6609   8.3549   9.3856   9.3857  10.2184
    12.9650  14.0394  14.5067  17.5379

          k =-0.2000 0.0000 0.0000 (  1171 PWs)   bands (ev):

    -5.6475   5.2290   5.5856   5.5858   8.2990   9.4946   9.4947  10.3090
    12.8569  14.0703  14.6171  17.5868

          k =-0.2167 0.0000 0.0000 (  1171 PWs)   bands (ev):

    -5.6171   5.1003   5.5090   5.5091   8.2408   9.6080   9.6081  10.3910
    12.7595  14.1039  14.7344  17.6398

          k =-0.2333 0.0000 0.0000 (  1163 PWs)   bands (ev):

    -5.5842   4.9682   5.4314   5.4315   8.1809   9.7252   9.7253  10.4598
    12.6775  14.1403  14.8580  17.6969

          k =-0.2500 0.0000 0.0000 (  1163 PWs)   bands (ev):

    -5.5490   4.8333   5.3531   5.3533   8.1194   9.8458   9.8459  10.5108
    12.6159  14.1793  14.9877  17.7581

          k =-0.2667 0.0000 0.0000 (  1163 PWs)   bands (ev):

    -5.5113   4.6960   5.2747   5.2749   8.0569   9.9695   9.9695  10.5393
    12.5796  14.2210  15.1228  17.8234

          k =-0.2833 0.0000 0.0000 (  1163 PWs)   bands (ev):

    -5.4713   4.5567   5.1963   5.1965   7.9935  10.0959  10.0959  10.5421
    12.5720  14.2653  15.2632  17.8926

          k =-0.3000 0.0000 0.0000 (  1163 PWs)   bands (ev):

    -5.4289   4.4156   5.1182   5.1184   7.9298  10.2248  10.2248  10.5181
    12.5944  14.3124  15.4084  17.9657

          k =-0.3167 0.0000 0.0000 (  1163 PWs)   bands (ev):

    -5.3840   4.2731   5.0407   5.0408   7.8658  10.3559  10.3559  10.4687
    12.6456  14.3621  15.5580  18.0426

          k =-0.3333 0.0000 0.0000 (  1162 PWs)   bands (ev):

    -5.3369   4.1292   4.9638   4.9640   7.8019  10.3973  10.4890  10.4890
    12.7222  14.4145  15.7116  18.1232

          k =-0.3500 0.0000 0.0000 (  1162 PWs)   bands (ev):

    -5.2873   3.9843   4.8878   4.8880   7.7384  10.3081  10.6240  10.6240
    12.8202  14.4696  15.8691  18.2074

          k =-0.3667 0.0000 0.0000 (  1162 PWs)   bands (ev):

    -5.2354   3.8384   4.8129   4.8130   7.6754  10.2052  10.7606  10.7606
    12.9354  14.5274  16.0300  18.2949

          k =-0.3833 0.0000 0.0000 (  1170 PWs)   bands (ev):

    -5.1811   3.6917   4.7391   4.7392   7.6131  10.0923  10.8988  10.8988
    13.0645  14.5878  16.1941  18.3856

          k =-0.4000 0.0000 0.0000 (  1170 PWs)   bands (ev):

    -5.1245   3.5444   4.6666   4.6667   7.5517   9.9723  11.0384  11.0384
    13.2043  14.6510  16.3609  18.4792

          k =-0.4167 0.0000 0.0000 (  1162 PWs)   bands (ev):

    -5.0656   3.3965   4.5954   4.5955   7.4914   9.8476  11.1793  11.1793
    13.3527  14.7167  16.5302  18.5753

          k =-0.4333 0.0000 0.0000 (  1162 PWs)   bands (ev):

    -5.0043   3.2480   4.5257   4.5258   7.4324   9.7200  11.3214  11.3214
    13.5079  14.7852  16.7017  18.6738

          k =-0.4500 0.0000 0.0000 (  1162 PWs)   bands (ev):

    -4.9408   3.0992   4.4574   4.4576   7.3747   9.5907  11.4646  11.4647
    13.6684  14.8563  16.8750  18.7738

          k =-0.4667 0.0000 0.0000 (  1162 PWs)   bands (ev):

    -4.8749   2.9500   4.3908   4.3909   7.3186   9.4610  11.6089  11.6089
    13.8333  14.9302  17.0497  18.8750

          k =-0.4833 0.0000 0.0000 (  1174 PWs)   bands (ev):

    -4.8067   2.8005   4.3258   4.3259   7.2640   9.3316  11.7541  11.7542
    14.0015  15.0066  17.2255  18.9766

          k =-0.5000 0.0000 0.0000 (  1174 PWs)   bands (ev):

    -4.7363   2.6509   4.2625   4.2627   7.2112   9.2031  11.9003  11.9003
    14.1726  15.0857  17.4019  19.0775

          k =-0.5167 0.0000 0.0000 (  1174 PWs)   bands (ev):

    -4.6636   2.5011   4.2010   4.2011   7.1602   9.0762  12.0473  12.0473
    14.3458  15.1675  17.5786  19.1768

          k =-0.5333 0.0000 0.0000 (  1158 PWs)   bands (ev):

    -4.5887   2.3512   4.1413   4.1414   7.1111   8.9513  12.1951  12.1951
    14.5207  15.2520  17.7549  19.2722

          k =-0.5500 0.0000 0.0000 (  1158 PWs)   bands (ev):

    -4.5115   2.2013   4.0834   4.0835   7.0641   8.8286  12.3437  12.3437
    14.6969  15.3391  17.9304  19.3627

          k =-0.5667 0.0000 0.0000 (  1158 PWs)   bands (ev):

    -4.4322   2.0513   4.0274   4.0275   7.0191   8.7084  12.4930  12.4931
    14.8741  15.4289  18.1044  19.4453

          k =-0.5833 0.0000 0.0000 (  1146 PWs)   bands (ev):

    -4.3506   1.9015   3.9732   3.9733   6.9763   8.5910  12.6431  12.6431
    15.0519  15.5213  18.2761  19.5173

          k =-0.6000 0.0000 0.0000 (  1146 PWs)   bands (ev):

    -4.2668   1.7518   3.9210   3.9211   6.9357   8.4765  12.7938  12.7938
    15.2301  15.6163  18.4450  19.5754

          k =-0.6167 0.0000 0.0000 (  1154 PWs)   bands (ev):

    -4.1809   1.6023   3.8708   3.8709   6.8975   8.3652  12.9451  12.9451
    15.4084  15.7140  18.6099  19.6159

          k =-0.6333 0.0000 0.0000 (  1154 PWs)   bands (ev):

    -4.0928   1.4530   3.8226   3.8227   6.8616   8.2570  13.0971  13.0971
    15.5866  15.8143  18.7700  19.6358

          k =-0.6500 0.0000 0.0000 (  1150 PWs)   bands (ev):

    -4.0026   1.3040   3.7764   3.7765   6.8281   8.1522  13.2497  13.2497
    15.7645  15.9173  18.9241  19.6324

          k =-0.6667 0.0000 0.0000 (  1150 PWs)   bands (ev):

    -3.9103   1.1554   3.7322   3.7323   6.7971   8.0508  13.4029  13.4029
    15.9419  16.0229  19.0710  19.6044

          k =-0.6833 0.0000 0.0000 (  1150 PWs)   bands (ev):

    -3.8159   1.0072   3.6900   3.6901   6.7686   7.9528  13.5567  13.5567
    16.1185  16.1312  19.2094  19.5523

          k =-0.7000 0.0000 0.0000 (  1158 PWs)   bands (ev):

    -3.7194   0.8594   3.6500   3.6501   6.7428   7.8583  13.7110  13.7110
    16.2420  16.2944  19.3377  19.4777

          k =-0.7167 0.0000 0.0000 (  1150 PWs)   bands (ev):

    -3.6209   0.7121   3.6120   3.6121   6.7195   7.7674  13.8658  13.8658
    16.3555  16.4692  19.3836  19.3837

          k =-0.7333 0.0000 0.0000 (  1150 PWs)   bands (ev):

    -3.5203   0.5654   3.5761   3.5762   6.6989   7.6801  14.0211  14.0211
    16.4716  16.6428  19.2731  19.2732

          k =-0.7500 0.0000 0.0000 (  1150 PWs)   bands (ev):

    -3.4178   0.4193   3.5423   3.5424   6.6811   7.5963  14.1769  14.1769
    16.5904  16.8150  19.1493  19.1494

          k =-0.7667 0.0000 0.0000 (  1150 PWs)   bands (ev):

    -3.3133   0.2739   3.5107   3.5108   6.6660   7.5162  14.3330  14.3330
    16.7117  16.9858  19.0150  19.0150

          k =-0.7833 0.0000 0.0000 (  1154 PWs)   bands (ev):

    -3.2068   0.1292   3.4812   3.4813   6.6537   7.4397  14.4895  14.4896
    16.8356  17.1548  18.8726  18.8727

          k =-0.8000 0.0000 0.0000 (  1154 PWs)   bands (ev):

    -3.0984  -0.0147   3.4538   3.4539   6.6443   7.3667  14.6463  14.6463
    16.9622  17.3221  18.7241  18.7242

          k =-0.8167 0.0000 0.0000 (  1154 PWs)   bands (ev):

    -2.9882  -0.1577   3.4286   3.4287   6.6378   7.2974  14.8032  14.8032
    17.0913  17.4874  18.5712  18.5713

          k =-0.8333 0.0000 0.0000 (  1146 PWs)   bands (ev):

    -2.8760  -0.2998   3.4056   3.4057   6.6342   7.2317  14.9600  14.9600
    17.2230  17.6505  18.4153  18.4153

          k =-0.8500 0.0000 0.0000 (  1154 PWs)   bands (ev):

    -2.7621  -0.4410   3.3847   3.3848   6.6336   7.1695  15.1165  15.1166
    17.3573  17.8112  18.2575  18.2576

          k =-0.8667 0.0000 0.0000 (  1154 PWs)   bands (ev):

    -2.6464  -0.5812   3.3660   3.3661   6.6359   7.1109  15.2724  15.2724
    17.4942  17.9693  18.0990  18.0990

          k =-0.8833 0.0000 0.0000 (  1154 PWs)   bands (ev):

    -2.5288  -0.7203   3.3495   3.3496   6.6413   7.0558  15.4271  15.4271
    17.6336  17.9409  17.9410  18.1247

          k =-0.9000 0.0000 0.0000 (  1154 PWs)   bands (ev):

    -2.4096  -0.8583   3.3352   3.3353   6.6498   7.0043  15.5797  15.5797
    17.7757  17.7846  17.7846  18.2770

          k =-0.9167 0.0000 0.0000 (  1154 PWs)   bands (ev):

    -2.2887  -0.9951   3.3231   3.3232   6.6614   6.9562  15.7288  15.7288
    17.6318  17.6318  17.9202  18.4259

          k =-0.9333 0.0000 0.0000 (  1162 PWs)   bands (ev):

    -2.1661  -1.1307   3.3132   3.3133   6.6762   6.9117  15.8720  15.8720
    17.4852  17.4852  18.0673  18.5711

          k =-0.9500 0.0000 0.0000 (  1162 PWs)   bands (ev):

    -2.0419  -1.2650   3.3055   3.3055   6.6941   6.8705  16.0050  16.0051
    17.3493  17.3493  18.2170  18.7121

          k =-0.9667 0.0000 0.0000 (  1162 PWs)   bands (ev):

    -1.9161  -1.3981   3.2999   3.3000   6.7153   6.8328  16.1199  16.1199
    17.2324  17.2324  18.3692  18.8486

          k =-0.9833 0.0000 0.0000 (  1162 PWs)   bands (ev):

    -1.7888  -1.5297   3.2966   3.2967   6.7397   6.7984  16.2023  16.2023
    17.1486  17.1487  18.5239  18.8410

          k =-1.0000 0.0000 0.0000 (  1162 PWs)   bands (ev):

    -1.6601  -1.6599   3.2955   3.2956   6.7673   6.7675  16.2332  16.2333
    17.1172  17.1173  18.6811  18.6813

          k =-1.0000 0.0083 0.0083 (  1162 PWs)   bands (ev):

    -1.6601  -1.6594   3.2911   3.2961   6.7680   6.7737  16.2263  16.2295
    17.1070  17.1093  18.6884  18.6892

          k =-1.0000 0.0167 0.0167 (  1162 PWs)   bands (ev):

    -1.6608  -1.6575   3.2780   3.2976   6.7697   6.7928  16.2057  16.2183
    17.0770  17.0859  18.7103  18.7121

          k =-1.0000 0.0250 0.0250 (  1160 PWs)   bands (ev):

    -1.6620  -1.6542   3.2565   3.3000   6.7726   6.8243  16.1722  16.1998
    17.0291  17.0483  18.7460  18.7490

          k =-1.0000 0.0333 0.0333 (  1156 PWs)   bands (ev):

    -1.6637  -1.6496   3.2272   3.3035   6.7766   6.8676  16.1268  16.1744
    16.9658  16.9984  18.7943  18.7979

          k =-1.0000 0.0417 0.0417 (  1156 PWs)   bands (ev):

    -1.6659  -1.6436   3.1906   3.3079   6.7817   6.9222  16.0708  16.1423
    16.8896  16.9382  18.8541  18.8569

          k =-1.0000 0.0500 0.0500 (  1156 PWs)   bands (ev):

    -1.6687  -1.6364   3.1475   3.3133   6.7880   6.9874  16.0057  16.1040
    16.8033  16.8695  18.9238  18.9242

          k =-1.0000 0.0583 0.0583 (  1152 PWs)   bands (ev):

    -1.6720  -1.6279   3.0988   3.3197   6.7954   7.0623  15.9326  16.0600
    16.7090  16.7939  18.9979  19.0023

          k =-1.0000 0.0667 0.0667 (  1152 PWs)   bands (ev):

    -1.6760  -1.6180   3.0452   3.3271   6.8039   7.1463  15.8529  16.0108
    16.6085  16.7130  19.0767  19.0882

          k =-1.0000 0.0750 0.0750 (  1144 PWs)   bands (ev):

    -1.6807  -1.6068   2.9875   3.3354   6.8136   7.2384  15.7677  15.9569
    16.5032  16.6278  19.1595  19.1805

          k =-1.0000 0.0833 0.0833 (  1142 PWs)   bands (ev):

    -1.6861  -1.5943   2.9266   3.3447   6.8244   7.3381  15.6778  15.8988
    16.3944  16.5392  19.2453  19.2780

          k =-1.0000 0.0917 0.0917 (  1146 PWs)   bands (ev):

    -1.6923  -1.5805   2.8631   3.3550   6.8363   7.4446  15.5842  15.8368
    16.2828  16.4481  19.3335  19.3801

          k =-1.0000 0.1000 0.1000 (  1146 PWs)   bands (ev):

    -1.6993  -1.5654   2.7978   3.3662   6.8493   7.5573  15.4875  15.7715
    16.1693  16.3549  19.4234  19.4859

          k =-1.0000 0.1083 0.1083 (  1142 PWs)   bands (ev):

    -1.7073  -1.5490   2.7312   3.3784   6.8634   7.6756  15.3883  15.7032
    16.0543  16.2602  19.5145  19.6089

          k =-1.0000 0.1167 0.1167 (  1142 PWs)   bands (ev):

    -1.7163  -1.5313   2.6640   3.3915   6.8787   7.7991  15.2871  15.6323
    15.9384  16.1643  19.6065  19.6763

          k =-1.0000 0.1250 0.1250 (  1150 PWs)   bands (ev):

    -1.7264  -1.5122   2.5966   3.4056   6.8951   7.9273  15.1843  15.5592
    15.8219  16.0676  19.6990  19.7448

          k =-1.0000 0.1333 0.1333 (  1150 PWs)   bands (ev):

    -1.7377  -1.4919   2.5295   3.4206   6.9125   8.0597  15.0803  15.4841
    15.7051  15.9704  19.7918  19.8148

          k =-1.0000 0.1417 0.1417 (  1154 PWs)   bands (ev):

    -1.7503  -1.4702   2.4632   3.4366   6.9311   8.1962  14.9753  15.4073
    15.5882  15.8728  19.8847  19.8861

          k =-1.0000 0.1500 0.1500 (  1154 PWs)   bands (ev):

    -1.7642  -1.4472   2.3980   3.4535   6.9507   8.3362  14.8696  15.3290
    15.4714  15.7750  19.9584  19.9774

          k =-1.0000 0.1583 0.1583 (  1154 PWs)   bands (ev):

    -1.7796  -1.4230   2.3344   3.4714   6.9715   8.4796  14.7635  15.2495
    15.3548  15.6773  20.0314  20.0700

          k =-1.0000 0.1667 0.1667 (  1152 PWs)   bands (ev):

    -1.7965  -1.3974   2.2725   3.4901   6.9933   8.6261  14.6570  15.1690
    15.2387  15.5797  20.1048  20.1622

          k =-1.0000 0.1750 0.1750 (  1152 PWs)   bands (ev):

    -1.8151  -1.3705   2.2128   3.5098   7.0161   8.7754  14.5504  15.0877
    15.1232  15.4823  20.1784  20.2539

          k =-1.0000 0.1833 0.1833 (  1152 PWs)   bands (ev):

    -1.8354  -1.3423   2.1555   3.5303   7.0401   8.9275  14.4438  15.0056
    15.0083  15.3854  20.2519  20.3451

          k =-1.0000 0.1917 0.1917 (  1152 PWs)   bands (ev):

    -1.8574  -1.3128   2.1008   3.5518   7.0651   9.0819  14.3373  14.8941
    14.9230  15.2889  20.3249  20.4356

          k =-1.0000 0.2000 0.2000 (  1144 PWs)   bands (ev):

    -1.8814  -1.2820   2.0490   3.5741   7.0911   9.2387  14.2310  14.7808
    14.8401  15.1930  20.3971  20.5256

          k =-1.0000 0.2083 0.2083 (  1144 PWs)   bands (ev):

    -1.9073  -1.2499   2.0002   3.5974   7.1181   9.3976  14.1250  14.6684
    14.7568  15.0978  20.4681  20.6148

          k =-1.0000 0.2167 0.2167 (  1144 PWs)   bands (ev):

    -1.9352  -1.2165   1.9546   3.6214   7.1462   9.5585  14.0195  14.5570
    14.6733  15.0032  20.5371  20.7033

          k =-1.0000 0.2250 0.2250 (  1144 PWs)   bands (ev):

    -1.9652  -1.1819   1.9123   3.6464   7.1753   9.7212  13.9143  14.4466
    14.5898  14.9095  20.6035  20.7911

          k =-1.0000 0.2333 0.2333 (  1144 PWs)   bands (ev):

    -1.9972  -1.1459   1.8736   3.6722   7.2053   9.8856  13.8097  14.3374
    14.5063  14.8166  20.6661  20.8781

          k =-1.0000 0.2417 0.2417 (  1144 PWs)   bands (ev):

    -2.0314  -1.1086   1.8384   3.6988   7.2364  10.0515  13.7057  14.2295
    14.4230  14.7246  20.7231  20.9644

          k =-1.0000 0.2500 0.2500 (  1144 PWs)   bands (ev):

    -2.0676  -1.0700   1.8069   3.7262   7.2684  10.2187  13.6022  14.1229
    14.3398  14.6335  20.7723  21.0498

          k =-0.7500 0.0000 0.7500 (  1144 PWs)   bands (ev):

    -2.0677  -1.0698   1.8070   3.7261   7.2683  10.2189  13.6024  14.1228
    14.3399  14.6334  20.7724  21.0497

          k =-0.7333 0.0000 0.7333 (  1144 PWs)   bands (ev):

    -2.1464  -0.9888   1.7551   3.7834   7.3351  10.5566  13.3976  13.9141
    14.1744  14.4544  20.8325  21.2184

          k =-0.7167 0.0000 0.7167 (  1142 PWs)   bands (ev):

    -2.2333  -0.9027   1.7181   3.8438   7.4056  10.8972  13.1958  13.7126
    14.0107  14.2797  20.8145  21.3841

          k =-0.7000 0.0000 0.7000 (  1142 PWs)   bands (ev):

    -2.3277  -0.8114   1.6961   3.9071   7.4797  11.2375  12.9973  13.5209
    13.8491  14.1098  20.7147  21.3329

          k =-0.6833 0.0000 0.6833 (  1141 PWs)   bands (ev):

    -2.4292  -0.7149   1.6885   3.9733   7.5570  11.5721  12.8023  13.3442
    13.6901  13.9450  20.5650  21.1365

          k =-0.6667 0.0000 0.6667 (  1141 PWs)   bands (ev):

    -2.5368  -0.6134   1.6949   4.0422   7.6375  11.8875  12.6109  13.1950
    13.5342  13.7856  20.3931  20.9429

          k =-0.6500 0.0000 0.6500 (  1141 PWs)   bands (ev):

    -2.6498  -0.5068   1.7146   4.1136   7.7209  12.1482  12.4233  13.1085
    13.3818  13.6319  20.2124  20.7538

          k =-0.6333 0.0000 0.6333 (  1141 PWs)   bands (ev):

    -2.7672  -0.3952   1.7468   4.1874   7.8070  12.2396  12.2789  13.1591
    13.2333  13.4843  20.0294  20.5699

          k =-0.6167 0.0000 0.6167 (  1147 PWs)   bands (ev):

    -2.8881  -0.2785   1.7907   4.2633   7.8953  12.0600  12.2516  13.0890
    13.3429  13.3742  19.8470  20.3925

          k =-0.6000 0.0000 0.6000 (  1145 PWs)   bands (ev):

    -3.0117  -0.1568   1.8456   4.3411   7.9857  11.8845  12.1402  12.9495
    13.2081  13.6786  19.6669  20.2224

          k =-0.5833 0.0000 0.5833 (  1141 PWs)   bands (ev):

    -3.1371  -0.0301   1.9106   4.4206   8.0776  11.7133  11.9983  12.8152
    13.0802  14.0174  19.4899  20.0609

          k =-0.5667 0.0000 0.5667 (  1151 PWs)   bands (ev):

    -3.2636   0.1016   1.9852   4.5015   8.1706  11.5464  11.8461  12.6864
    12.9596  14.3687  19.3163  19.9097

          k =-0.5500 0.0000 0.5500 (  1147 PWs)   bands (ev):

    -3.3905   0.2381   2.0685   4.5837   8.2643  11.3839  11.6910  12.5637
    12.8464  14.7225  19.1465  19.7710

          k =-0.5333 0.0000 0.5333 (  1147 PWs)   bands (ev):

    -3.5171   0.3796   2.1600   4.6666   8.3579  11.2259  11.5363  12.4476
    12.7412  15.0720  18.9800  19.6476

          k =-0.5167 0.0000 0.5167 (  1155 PWs)   bands (ev):

    -3.6430   0.5259   2.2591   4.7502   8.4508  11.0724  11.3837  12.3386
    12.6441  15.4109  18.8159  19.5438

          k =-0.5000 0.0000 0.5000 (  1159 PWs)   bands (ev):

    -3.7676   0.6770   2.3653   4.8340   8.5422  10.9234  11.2341  12.2374
    12.5556  15.7319  18.6514  19.3252

          k =-0.4833 0.0000 0.4833 (  1147 PWs)   bands (ev):

    -3.8904   0.8329   2.4781   4.9177   8.6313  10.7790  11.0880  12.1446
    12.4759  16.0257  18.4783  18.9520

          k =-0.4667 0.0000 0.4667 (  1147 PWs)   bands (ev):

    -4.0112   0.9936   2.5971   5.0009   8.7170  10.6392  10.9457  12.0608
    12.4054  16.2812  18.2702  18.6229

          k =-0.4500 0.0000 0.4500 (  1151 PWs)   bands (ev):

    -4.1295   1.1589   2.7218   5.0832   8.7984  10.5042  10.8073  11.9866
    12.3445  16.4868  17.9848  18.3813

          k =-0.4333 0.0000 0.4333 (  1151 PWs)   bands (ev):

    -4.2452   1.3288   2.8518   5.1643   8.8743  10.3738  10.6730  11.9227
    12.2935  16.6335  17.6402  18.2101

          k =-0.4167 0.0000 0.4167 (  1155 PWs)   bands (ev):

    -4.3578   1.5033   2.9867   5.2439   8.9436  10.2482  10.5430  11.8694
    12.2527  16.7186  17.2771  18.0693

          k =-0.4000 0.0000 0.4000 (  1151 PWs)   bands (ev):

    -4.4672   1.6822   3.1261   5.3214   9.0055  10.1273  10.4172  11.8270
    12.2224  16.7468  16.9118  17.9438

          k =-0.3833 0.0000 0.3833 (  1155 PWs)   bands (ev):

    -4.5732   1.8655   3.2697   5.3966   9.0588  10.0113  10.2956  11.7953
    12.2030  16.5504  16.7272  17.8288

          k =-0.3667 0.0000 0.3667 (  1157 PWs)   bands (ev):

    -4.6756   2.0531   3.4170   5.4691   9.1032   9.9000  10.1784  11.7735
    12.1946  16.1958  16.6700  17.7225

          k =-0.3500 0.0000 0.3500 (  1153 PWs)   bands (ev):

    -4.7742   2.2449   3.5677   5.5386   9.1381   9.7936  10.0653  11.7604
    12.1975  15.8506  16.5838  17.6244

          k =-0.3333 0.0000 0.3333 (  1147 PWs)   bands (ev):

    -4.8690   2.4408   3.7212   5.6048   9.1637   9.6920   9.9565  11.7536
    12.2118  15.5172  16.4750  17.5343

          k =-0.3167 0.0000 0.3167 (  1149 PWs)   bands (ev):

    -4.9597   2.6406   3.8772   5.6673   9.1802   9.5953   9.8519  11.7498
    12.2376  15.1985  16.3485  17.4520

          k =-0.3000 0.0000 0.3000 (  1157 PWs)   bands (ev):

    -5.0463   2.8441   4.0351   5.7262   9.1883   9.5034   9.7515  11.7444
    12.2748  14.8982  16.2077  17.3779

          k =-0.2833 0.0000 0.2833 (  1157 PWs)   bands (ev):

    -5.1286   3.0512   4.1945   5.7811   9.1890   9.4165   9.6551  11.7316
    12.3234  14.6211  16.0551  17.3120

          k =-0.2667 0.0000 0.2667 (  1159 PWs)   bands (ev):

    -5.2066   3.2616   4.3547   5.8320   9.1831   9.3345   9.5627  11.7044
    12.3831  14.3728  15.8932  17.2546

          k =-0.2500 0.0000 0.2500 (  1159 PWs)   bands (ev):

    -5.2802   3.4750   4.5151   5.8788   9.1718   9.2573   9.4744  11.6550
    12.4537  14.1596  15.7240  17.2060

          k =-0.2333 0.0000 0.2333 (  1161 PWs)   bands (ev):

    -5.3494   3.6911   4.6750   5.9215   9.1560   9.1852   9.3899  11.5764
    12.5345  13.9871  15.5498  17.1663

          k =-0.2167 0.0000 0.2167 (  1161 PWs)   bands (ev):

    -5.4140   3.9094   4.8336   5.9603   9.1179   9.1367   9.3093  11.4642
    12.6251  13.8582  15.3728  17.1357

          k =-0.2000 0.0000 0.2000 (  1165 PWs)   bands (ev):

    -5.4740   4.1294   4.9898   5.9951   9.0556   9.1145   9.2325  11.3185
    12.7246  13.7719  15.1955  17.1143

          k =-0.1833 0.0000 0.1833 (  1165 PWs)   bands (ev):

    -5.5294   4.3504   5.1429   6.0262   8.9983   9.0901   9.1595  11.1438
    12.8321  13.7227  15.0202  17.1022

          k =-0.1667 0.0000 0.1667 (  1163 PWs)   bands (ev):

    -5.5801   4.5715   5.2914   6.0537   8.9459   9.0638   9.0904  10.9471
    12.9463  13.7031  14.8495  17.0990

          k =-0.1500 0.0000 0.1500 (  1169 PWs)   bands (ev):

    -5.6260   4.7915   5.4342   6.0778   8.8985   9.0253   9.0356  10.7369
    13.0657  13.7049  14.6859  17.1043

          k =-0.1333 0.0000 0.1333 (  1169 PWs)   bands (ev):

    -5.6672   5.0088   5.5697   6.0987   8.8561   8.9644   9.0054  10.5213
    13.1883  13.7208  14.5316  17.1173

          k =-0.1167 0.0000 0.1167 (  1177 PWs)   bands (ev):

    -5.7037   5.2214   5.6964   6.1165   8.8186   8.9079   8.9723  10.3082
    13.3119  13.7448  14.3890  17.1368

          k =-0.1000 0.0000 0.1000 (  1179 PWs)   bands (ev):

    -5.7353   5.4263   5.8122   6.1316   8.7862   8.8565   8.9355  10.1053
    13.4335  13.7725  14.2602  17.1612

          k =-0.0833 0.0000 0.0833 (  1179 PWs)   bands (ev):

    -5.7621   5.6197   5.9154   6.1439   8.7587   8.8107   8.8937   9.9207
    13.5494  13.8003  14.1474  17.1885

          k =-0.0667 0.0000 0.0667 (  1179 PWs)   bands (ev):

    -5.7840   5.7960   6.0037   6.1538   8.7362   8.7714   8.8462   9.7625
    13.6554  13.8258  14.0523  17.2161

          k =-0.0500 0.0000 0.0500 (  1173 PWs)   bands (ev):

    -5.8011   5.9482   6.0751   6.1614   8.7187   8.7394   8.7949   9.6374
    13.7462  13.8472  13.9766  17.2414

          k =-0.0333 0.0000 0.0333 (  1161 PWs)   bands (ev):

    -5.8133   6.0676   6.1278   6.1667   8.7062   8.7156   8.7460   9.5491
    13.8165  13.8633  13.9215  17.2619

          k =-0.0167 0.0000 0.0167 (  1145 PWs)   bands (ev):

    -5.8207   6.1445   6.1601   6.1698   8.6987   8.7010   8.7097   9.4975
    13.8612  13.8732  13.8881  17.2752

          k = 0.0000 0.0000 0.0000 (  1139 PWs)   bands (ev):

    -5.8231   6.1707   6.1711   6.1711   8.6961   8.6961   8.6963   9.4806
    13.8765  13.8765  13.8768  17.2798

     Writing all to output data dir ./silicon.save/ :
     XML data file, pseudopotentials, collected wavefunctions

     init_run     :      0.15s CPU      0.16s WALL (       1 calls)
     electrons    :     52.96s CPU     53.64s WALL (       1 calls)

     Called by init_run:
     wfcinit      :      0.00s CPU      0.00s WALL (       1 calls)
     wfcinit:atom :      0.01s CPU      0.02s WALL (     182 calls)
     wfcinit:wfcr :      1.19s CPU      1.22s WALL (     182 calls)
     potinit      :      0.01s CPU      0.01s WALL (       1 calls)
     hinit0       :      0.11s CPU      0.11s WALL (       1 calls)

     Called by electrons:
     c_bands      :     52.96s CPU     53.64s WALL (       1 calls)
     v_of_rho     :      0.01s CPU      0.01s WALL (       1 calls)
     v_h          :      0.00s CPU      0.00s WALL (       1 calls)
     v_xc         :      0.01s CPU      0.01s WALL (       1 calls)
     newd         :      0.01s CPU      0.01s WALL (       1 calls)

     Called by c_bands:
     init_us_2    :      0.02s CPU      0.03s WALL (     182 calls)
     cegterg      :     51.64s CPU     52.24s WALL (     700 calls)

     Called by sum_band:

     Called by *egterg:
     cdiaghg      :      1.61s CPU      1.64s WALL (   13009 calls)
     cegterg:over :      3.73s CPU      3.79s WALL (   12827 calls)
     cegterg:upda :      2.06s CPU      2.09s WALL (   12827 calls)
     cegterg:last :      5.57s CPU      5.62s WALL (    6211 calls)
     h_psi        :     37.39s CPU     37.83s WALL (   13709 calls)
     s_psi        :      1.42s CPU      1.44s WALL (   13709 calls)
     g_psi        :      0.27s CPU      0.27s WALL (   12827 calls)

     Called by h_psi:
     h_psi:calbec :      1.60s CPU      1.62s WALL (   13709 calls)
     vloc_psi     :     34.22s CPU     34.63s WALL (   13709 calls)
     add_vuspsi   :      1.42s CPU      1.44s WALL (   13709 calls)

     General routines
     calbec       :      1.58s CPU      1.60s WALL (   13709 calls)
     fft          :      0.00s CPU      0.00s WALL (      12 calls)
     fftw         :     31.58s CPU     31.95s WALL (  154498 calls)
     davcio       :      0.03s CPU      0.05s WALL (     364 calls)


     PWSCF        :     53.18s CPU     53.92s WALL


   This run was terminated on:  20:32:29  19Dec2024            

=------------------------------------------------------------------------------=
   JOB DONE.
=------------------------------------------------------------------------------=
