
     Program PWSCF v.7.3.1 starts on 25Dec2024 at 23:11: 8 

     This program is part of the open-source Quantum ESPRESSO suite
     for quantum simulation of materials; please cite
         "P. Giannozzi et al., J. Phys.:Condens. Matter 21 395502 (2009);
         "P. Giannozzi et al., J. Phys.:Condens. Matter 29 465901 (2017);
         "P. Giannozzi et al., J. Chem. Phys. 152 154105 (2020);
          URL http://www.quantum-espresso.org", 
     in publications or presentations arising from this work. More details at
     http://www.quantum-espresso.org/quote

     Serial version
     107229 MiB available memory on the printing compute node when the environment starts

     Waiting for input...
     Reading input from standard input

     Current dimensions of program PWSCF are:
     Max number of different atomic species (ntypx) = 10
     Max number of k-points (npk) =  40000
     Max angular momentum in pseudopotentials (lmaxx) =  4
     Message from routine input:
     WARNING: "startingwfc" set to atomic+random may spoil restart


     G-vector sticks info
     --------------------
     sticks:   dense  smooth     PW     G-vecs:    dense   smooth      PW
     Sum         583     583    169                 9257     9257    1471

     Using Slab Decomposition



     bravais-lattice index     =            2
     lattice parameter (alat)  =      10.2600  a.u.
     unit-cell volume          =     270.0114 (a.u.)^3
     number of atoms/cell      =            2
     number of atomic types    =            1
     number of electrons       =         8.00
     number of Kohn-Sham states=           12
     kinetic-energy cutoff     =      40.0000  Ry
     charge density cutoff     =     160.0000  Ry
     Exchange-correlation= PBESOL
                           (   1   4  10   8   0   0   0)

     celldm(1)=  10.260000  celldm(2)=   0.000000  celldm(3)=   0.000000
     celldm(4)=   0.000000  celldm(5)=   0.000000  celldm(6)=   0.000000

     crystal axes: (cart. coord. in units of alat)
               a(1) = (  -0.500000   0.000000   0.500000 )  
               a(2) = (   0.000000   0.500000   0.500000 )  
               a(3) = (  -0.500000   0.500000   0.000000 )  

     reciprocal axes: (cart. coord. in units 2 pi/alat)
               b(1) = ( -1.000000 -1.000000  1.000000 )  
               b(2) = (  1.000000  1.000000  1.000000 )  
               b(3) = ( -1.000000  1.000000 -1.000000 )  


     PseudoPot. # 1 for Si read from file:
     ./Si_pbesol.upf
     MD5 check sum: fe77d7a5829557c21112a27752452c0f
     Pseudo is Ultrasoft + core correction, Zval =  4.0
     Generated using "atomic" code by A. Dal Corso  v.5.0.2 svn rev. 9415
     Using radial grid of 1141 points,  4 beta functions with: 
                l(1) =   0
                l(2) =   0
                l(3) =   1
                l(4) =   1
     Q(r) pseudized with 0 coefficients 


     atomic species   valence    mass     pseudopotential
     Si                4.00    28.08550     Si( 1.00)

     48 Sym. Ops., with inversion, found (24 have fractional translation)


                                    s                        frac. trans.

      isym =  1     identity                                     

 cryst.   s( 1) = (     1          0          0      )
                  (     0          1          0      )
                  (     0          0          1      )

 cart.    s( 1) = (  1.0000000  0.0000000  0.0000000 )
                  (  0.0000000  1.0000000  0.0000000 )
                  (  0.0000000  0.0000000  1.0000000 )


      isym =  2     180 deg rotation - cart. axis [0,0,1]        

 cryst.   s( 2) = (     0          1         -1      )
                  (     1          0         -1      )
                  (     0          0         -1      )

 cart.    s( 2) = ( -1.0000000  0.0000000  0.0000000 )
                  (  0.0000000 -1.0000000  0.0000000 )
                  (  0.0000000  0.0000000  1.0000000 )


      isym =  3     180 deg rotation - cart. axis [0,1,0]        

 cryst.   s( 3) = (    -1          0          0      )
                  (    -1          0          1      )
                  (    -1          1          0      )

 cart.    s( 3) = ( -1.0000000  0.0000000  0.0000000 )
                  (  0.0000000  1.0000000  0.0000000 )
                  (  0.0000000  0.0000000 -1.0000000 )


      isym =  4     180 deg rotation - cart. axis [1,0,0]        

 cryst.   s( 4) = (     0         -1          1      )
                  (     0         -1          0      )
                  (     1         -1          0      )

 cart.    s( 4) = (  1.0000000  0.0000000  0.0000000 )
                  (  0.0000000 -1.0000000  0.0000000 )
                  (  0.0000000  0.0000000 -1.0000000 )


      isym =  5     180 deg rotation - cart. axis [1,1,0]        

 cryst.   s( 5) = (     0         -1          0      )    f =(  0.2500000 )
                  (    -1          0          0      )       (  0.2500000 )
                  (     0          0         -1      )       (  0.2500000 )

 cart.    s( 5) = (  0.0000000  1.0000000  0.0000000 )    f =( -0.2500000 )
                  (  1.0000000  0.0000000  0.0000000 )       (  0.2500000 )
                  (  0.0000000  0.0000000 -1.0000000 )       (  0.2500000 )


      isym =  6     180 deg rotation - cart. axis [1,-1,0]       

 cryst.   s( 6) = (    -1          0          1      )    f =(  0.2500000 )
                  (     0         -1          1      )       (  0.2500000 )
                  (     0          0          1      )       (  0.2500000 )

 cart.    s( 6) = (  0.0000000 -1.0000000  0.0000000 )    f =( -0.2500000 )
                  ( -1.0000000  0.0000000  0.0000000 )       (  0.2500000 )
                  (  0.0000000  0.0000000 -1.0000000 )       (  0.2500000 )


      isym =  7      90 deg rotation - cart. axis [0,0,-1]       

 cryst.   s( 7) = (     0          1          0      )    f =(  0.2500000 )
                  (     0          1         -1      )       (  0.2500000 )
                  (    -1          1          0      )       (  0.2500000 )

 cart.    s( 7) = (  0.0000000  1.0000000  0.0000000 )    f =( -0.2500000 )
                  ( -1.0000000  0.0000000  0.0000000 )       (  0.2500000 )
                  (  0.0000000  0.0000000  1.0000000 )       (  0.2500000 )


      isym =  8      90 deg rotation - cart. axis [0,0,1]        

 cryst.   s( 8) = (     1          0         -1      )    f =(  0.2500000 )
                  (     1          0          0      )       (  0.2500000 )
                  (     1         -1          0      )       (  0.2500000 )

 cart.    s( 8) = (  0.0000000 -1.0000000  0.0000000 )    f =( -0.2500000 )
                  (  1.0000000  0.0000000  0.0000000 )       (  0.2500000 )
                  (  0.0000000  0.0000000  1.0000000 )       (  0.2500000 )


      isym =  9     180 deg rotation - cart. axis [1,0,1]        

 cryst.   s( 9) = (    -1          0          0      )    f =(  0.2500000 )
                  (     0          0         -1      )       (  0.2500000 )
                  (     0         -1          0      )       (  0.2500000 )

 cart.    s( 9) = (  0.0000000  0.0000000  1.0000000 )    f =( -0.2500000 )
                  (  0.0000000 -1.0000000  0.0000000 )       (  0.2500000 )
                  (  1.0000000  0.0000000  0.0000000 )       (  0.2500000 )


      isym = 10     180 deg rotation - cart. axis [-1,0,1]       

 cryst.   s(10) = (     1          0          0      )    f =(  0.2500000 )
                  (     1         -1          0      )       (  0.2500000 )
                  (     1          0         -1      )       (  0.2500000 )

 cart.    s(10) = (  0.0000000  0.0000000 -1.0000000 )    f =( -0.2500000 )
                  (  0.0000000 -1.0000000  0.0000000 )       (  0.2500000 )
                  ( -1.0000000  0.0000000  0.0000000 )       (  0.2500000 )


      isym = 11      90 deg rotation - cart. axis [0,1,0]        

 cryst.   s(11) = (     0          1         -1      )    f =(  0.2500000 )
                  (    -1          1          0      )       (  0.2500000 )
                  (     0          1          0      )       (  0.2500000 )

 cart.    s(11) = (  0.0000000  0.0000000  1.0000000 )    f =( -0.2500000 )
                  (  0.0000000  1.0000000  0.0000000 )       (  0.2500000 )
                  ( -1.0000000  0.0000000  0.0000000 )       (  0.2500000 )


      isym = 12      90 deg rotation - cart. axis [0,-1,0]       

 cryst.   s(12) = (     0         -1          1      )    f =(  0.2500000 )
                  (     0          0          1      )       (  0.2500000 )
                  (    -1          0          1      )       (  0.2500000 )

 cart.    s(12) = (  0.0000000  0.0000000 -1.0000000 )    f =( -0.2500000 )
                  (  0.0000000  1.0000000  0.0000000 )       (  0.2500000 )
                  (  1.0000000  0.0000000  0.0000000 )       (  0.2500000 )


      isym = 13     180 deg rotation - cart. axis [0,1,1]        

 cryst.   s(13) = (    -1          1          0      )    f =(  0.2500000 )
                  (     0          1          0      )       (  0.2500000 )
                  (     0          1         -1      )       (  0.2500000 )

 cart.    s(13) = ( -1.0000000  0.0000000  0.0000000 )    f =( -0.2500000 )
                  (  0.0000000  0.0000000  1.0000000 )       (  0.2500000 )
                  (  0.0000000  1.0000000  0.0000000 )       (  0.2500000 )


      isym = 14     180 deg rotation - cart. axis [0,1,-1]       

 cryst.   s(14) = (     0          0         -1      )    f =(  0.2500000 )
                  (     0         -1          0      )       (  0.2500000 )
                  (    -1          0          0      )       (  0.2500000 )

 cart.    s(14) = ( -1.0000000  0.0000000  0.0000000 )    f =( -0.2500000 )
                  (  0.0000000  0.0000000 -1.0000000 )       (  0.2500000 )
                  (  0.0000000 -1.0000000  0.0000000 )       (  0.2500000 )


      isym = 15      90 deg rotation - cart. axis [-1,0,0]       

 cryst.   s(15) = (     0          0          1      )    f =(  0.2500000 )
                  (    -1          0          1      )       (  0.2500000 )
                  (     0         -1          1      )       (  0.2500000 )

 cart.    s(15) = (  1.0000000  0.0000000  0.0000000 )    f =( -0.2500000 )
                  (  0.0000000  0.0000000  1.0000000 )       (  0.2500000 )
                  (  0.0000000 -1.0000000  0.0000000 )       (  0.2500000 )


      isym = 16      90 deg rotation - cart. axis [1,0,0]        

 cryst.   s(16) = (     1         -1          0      )    f =(  0.2500000 )
                  (     1          0         -1      )       (  0.2500000 )
                  (     1          0          0      )       (  0.2500000 )

 cart.    s(16) = (  1.0000000  0.0000000  0.0000000 )    f =( -0.2500000 )
                  (  0.0000000  0.0000000 -1.0000000 )       (  0.2500000 )
                  (  0.0000000  1.0000000  0.0000000 )       (  0.2500000 )


      isym = 17     120 deg rotation - cart. axis [-1,-1,-1]     

 cryst.   s(17) = (    -1          0          1      )
                  (    -1          1          0      )
                  (    -1          0          0      )

 cart.    s(17) = (  0.0000000  1.0000000  0.0000000 )
                  (  0.0000000  0.0000000  1.0000000 )
                  (  1.0000000  0.0000000  0.0000000 )


      isym = 18     120 deg rotation - cart. axis [-1,1,1]       

 cryst.   s(18) = (     0          1          0      )
                  (     0          0          1      )
                  (     1          0          0      )

 cart.    s(18) = (  0.0000000 -1.0000000  0.0000000 )
                  (  0.0000000  0.0000000  1.0000000 )
                  ( -1.0000000  0.0000000  0.0000000 )


      isym = 19     120 deg rotation - cart. axis [1,1,-1]       

 cryst.   s(19) = (     1          0         -1      )
                  (     0          0         -1      )
                  (     0          1         -1      )

 cart.    s(19) = (  0.0000000  1.0000000  0.0000000 )
                  (  0.0000000  0.0000000 -1.0000000 )
                  ( -1.0000000  0.0000000  0.0000000 )


      isym = 20     120 deg rotation - cart. axis [1,-1,1]       

 cryst.   s(20) = (     0         -1          0      )
                  (     1         -1          0      )
                  (     0         -1          1      )

 cart.    s(20) = (  0.0000000 -1.0000000  0.0000000 )
                  (  0.0000000  0.0000000 -1.0000000 )
                  (  1.0000000  0.0000000  0.0000000 )


      isym = 21     120 deg rotation - cart. axis [1,1,1]        

 cryst.   s(21) = (     0          0         -1      )
                  (     0          1         -1      )
                  (     1          0         -1      )

 cart.    s(21) = (  0.0000000  0.0000000  1.0000000 )
                  (  1.0000000  0.0000000  0.0000000 )
                  (  0.0000000  1.0000000  0.0000000 )


      isym = 22     120 deg rotation - cart. axis [-1,1,-1]      

 cryst.   s(22) = (    -1          1          0      )
                  (    -1          0          0      )
                  (    -1          0          1      )

 cart.    s(22) = (  0.0000000  0.0000000  1.0000000 )
                  ( -1.0000000  0.0000000  0.0000000 )
                  (  0.0000000 -1.0000000  0.0000000 )


      isym = 23     120 deg rotation - cart. axis [1,-1,-1]      

 cryst.   s(23) = (     0          0          1      )
                  (     1          0          0      )
                  (     0          1          0      )

 cart.    s(23) = (  0.0000000  0.0000000 -1.0000000 )
                  ( -1.0000000  0.0000000  0.0000000 )
                  (  0.0000000  1.0000000  0.0000000 )


      isym = 24     120 deg rotation - cart. axis [-1,-1,1]      

 cryst.   s(24) = (     1         -1          0      )
                  (     0         -1          1      )
                  (     0         -1          0      )

 cart.    s(24) = (  0.0000000  0.0000000 -1.0000000 )
                  (  1.0000000  0.0000000  0.0000000 )
                  (  0.0000000 -1.0000000  0.0000000 )


      isym = 25     inversion                                    

 cryst.   s(25) = (    -1          0          0      )    f =(  0.2500000 )
                  (     0         -1          0      )       (  0.2500000 )
                  (     0          0         -1      )       (  0.2500000 )

 cart.    s(25) = ( -1.0000000  0.0000000  0.0000000 )    f =( -0.2500000 )
                  (  0.0000000 -1.0000000  0.0000000 )       (  0.2500000 )
                  (  0.0000000  0.0000000 -1.0000000 )       (  0.2500000 )


      isym = 26     inv. 180 deg rotation - cart. axis [0,0,1]   

 cryst.   s(26) = (     0         -1          1      )    f =(  0.2500000 )
                  (    -1          0          1      )       (  0.2500000 )
                  (     0          0          1      )       (  0.2500000 )

 cart.    s(26) = (  1.0000000  0.0000000  0.0000000 )    f =( -0.2500000 )
                  (  0.0000000  1.0000000  0.0000000 )       (  0.2500000 )
                  (  0.0000000  0.0000000 -1.0000000 )       (  0.2500000 )


      isym = 27     inv. 180 deg rotation - cart. axis [0,1,0]   

 cryst.   s(27) = (     1          0          0      )    f =(  0.2500000 )
                  (     1          0         -1      )       (  0.2500000 )
                  (     1         -1          0      )       (  0.2500000 )

 cart.    s(27) = (  1.0000000  0.0000000  0.0000000 )    f =( -0.2500000 )
                  (  0.0000000 -1.0000000  0.0000000 )       (  0.2500000 )
                  (  0.0000000  0.0000000  1.0000000 )       (  0.2500000 )


      isym = 28     inv. 180 deg rotation - cart. axis [1,0,0]   

 cryst.   s(28) = (     0          1         -1      )    f =(  0.2500000 )
                  (     0          1          0      )       (  0.2500000 )
                  (    -1          1          0      )       (  0.2500000 )

 cart.    s(28) = ( -1.0000000  0.0000000  0.0000000 )    f =( -0.2500000 )
                  (  0.0000000  1.0000000  0.0000000 )       (  0.2500000 )
                  (  0.0000000  0.0000000  1.0000000 )       (  0.2500000 )


      isym = 29     inv. 180 deg rotation - cart. axis [1,1,0]   

 cryst.   s(29) = (     0          1          0      )
                  (     1          0          0      )
                  (     0          0          1      )

 cart.    s(29) = (  0.0000000 -1.0000000  0.0000000 )
                  ( -1.0000000  0.0000000  0.0000000 )
                  (  0.0000000  0.0000000  1.0000000 )


      isym = 30     inv. 180 deg rotation - cart. axis [1,-1,0]  

 cryst.   s(30) = (     1          0         -1      )
                  (     0          1         -1      )
                  (     0          0         -1      )

 cart.    s(30) = (  0.0000000  1.0000000  0.0000000 )
                  (  1.0000000  0.0000000  0.0000000 )
                  (  0.0000000  0.0000000  1.0000000 )


      isym = 31     inv.  90 deg rotation - cart. axis [0,0,-1]  

 cryst.   s(31) = (     0         -1          0      )
                  (     0         -1          1      )
                  (     1         -1          0      )

 cart.    s(31) = (  0.0000000 -1.0000000  0.0000000 )
                  (  1.0000000  0.0000000  0.0000000 )
                  (  0.0000000  0.0000000 -1.0000000 )


      isym = 32     inv.  90 deg rotation - cart. axis [0,0,1]   

 cryst.   s(32) = (    -1          0          1      )
                  (    -1          0          0      )
                  (    -1          1          0      )

 cart.    s(32) = (  0.0000000  1.0000000  0.0000000 )
                  ( -1.0000000  0.0000000  0.0000000 )
                  (  0.0000000  0.0000000 -1.0000000 )


      isym = 33     inv. 180 deg rotation - cart. axis [1,0,1]   

 cryst.   s(33) = (     1          0          0      )
                  (     0          0          1      )
                  (     0          1          0      )

 cart.    s(33) = (  0.0000000  0.0000000 -1.0000000 )
                  (  0.0000000  1.0000000  0.0000000 )
                  ( -1.0000000  0.0000000  0.0000000 )


      isym = 34     inv. 180 deg rotation - cart. axis [-1,0,1]  

 cryst.   s(34) = (    -1          0          0      )
                  (    -1          1          0      )
                  (    -1          0          1      )

 cart.    s(34) = (  0.0000000  0.0000000  1.0000000 )
                  (  0.0000000  1.0000000  0.0000000 )
                  (  1.0000000  0.0000000  0.0000000 )


      isym = 35     inv.  90 deg rotation - cart. axis [0,1,0]   

 cryst.   s(35) = (     0         -1          1      )
                  (     1         -1          0      )
                  (     0         -1          0      )

 cart.    s(35) = (  0.0000000  0.0000000 -1.0000000 )
                  (  0.0000000 -1.0000000  0.0000000 )
                  (  1.0000000  0.0000000  0.0000000 )


      isym = 36     inv.  90 deg rotation - cart. axis [0,-1,0]  

 cryst.   s(36) = (     0          1         -1      )
                  (     0          0         -1      )
                  (     1          0         -1      )

 cart.    s(36) = (  0.0000000  0.0000000  1.0000000 )
                  (  0.0000000 -1.0000000  0.0000000 )
                  ( -1.0000000  0.0000000  0.0000000 )


      isym = 37     inv. 180 deg rotation - cart. axis [0,1,1]   

 cryst.   s(37) = (     1         -1          0      )
                  (     0         -1          0      )
                  (     0         -1          1      )

 cart.    s(37) = (  1.0000000  0.0000000  0.0000000 )
                  (  0.0000000  0.0000000 -1.0000000 )
                  (  0.0000000 -1.0000000  0.0000000 )


      isym = 38     inv. 180 deg rotation - cart. axis [0,1,-1]  

 cryst.   s(38) = (     0          0          1      )
                  (     0          1          0      )
                  (     1          0          0      )

 cart.    s(38) = (  1.0000000  0.0000000  0.0000000 )
                  (  0.0000000  0.0000000  1.0000000 )
                  (  0.0000000  1.0000000  0.0000000 )


      isym = 39     inv.  90 deg rotation - cart. axis [-1,0,0]  

 cryst.   s(39) = (     0          0         -1      )
                  (     1          0         -1      )
                  (     0          1         -1      )

 cart.    s(39) = ( -1.0000000  0.0000000  0.0000000 )
                  (  0.0000000  0.0000000 -1.0000000 )
                  (  0.0000000  1.0000000  0.0000000 )


      isym = 40     inv.  90 deg rotation - cart. axis [1,0,0]   

 cryst.   s(40) = (    -1          1          0      )
                  (    -1          0          1      )
                  (    -1          0          0      )

 cart.    s(40) = ( -1.0000000  0.0000000  0.0000000 )
                  (  0.0000000  0.0000000  1.0000000 )
                  (  0.0000000 -1.0000000  0.0000000 )


      isym = 41     inv. 120 deg rotation - cart. axis [-1,-1,-1]

 cryst.   s(41) = (     1          0         -1      )    f =(  0.2500000 )
                  (     1         -1          0      )       (  0.2500000 )
                  (     1          0          0      )       (  0.2500000 )

 cart.    s(41) = (  0.0000000 -1.0000000  0.0000000 )    f =( -0.2500000 )
                  (  0.0000000  0.0000000 -1.0000000 )       (  0.2500000 )
                  ( -1.0000000  0.0000000  0.0000000 )       (  0.2500000 )


      isym = 42     inv. 120 deg rotation - cart. axis [-1,1,1]  

 cryst.   s(42) = (     0         -1          0      )    f =(  0.2500000 )
                  (     0          0         -1      )       (  0.2500000 )
                  (    -1          0          0      )       (  0.2500000 )

 cart.    s(42) = (  0.0000000  1.0000000  0.0000000 )    f =( -0.2500000 )
                  (  0.0000000  0.0000000 -1.0000000 )       (  0.2500000 )
                  (  1.0000000  0.0000000  0.0000000 )       (  0.2500000 )


      isym = 43     inv. 120 deg rotation - cart. axis [1,1,-1]  

 cryst.   s(43) = (    -1          0          1      )    f =(  0.2500000 )
                  (     0          0          1      )       (  0.2500000 )
                  (     0         -1          1      )       (  0.2500000 )

 cart.    s(43) = (  0.0000000 -1.0000000  0.0000000 )    f =( -0.2500000 )
                  (  0.0000000  0.0000000  1.0000000 )       (  0.2500000 )
                  (  1.0000000  0.0000000  0.0000000 )       (  0.2500000 )


      isym = 44     inv. 120 deg rotation - cart. axis [1,-1,1]  

 cryst.   s(44) = (     0          1          0      )    f =(  0.2500000 )
                  (    -1          1          0      )       (  0.2500000 )
                  (     0          1         -1      )       (  0.2500000 )

 cart.    s(44) = (  0.0000000  1.0000000  0.0000000 )    f =( -0.2500000 )
                  (  0.0000000  0.0000000  1.0000000 )       (  0.2500000 )
                  ( -1.0000000  0.0000000  0.0000000 )       (  0.2500000 )


      isym = 45     inv. 120 deg rotation - cart. axis [1,1,1]   

 cryst.   s(45) = (     0          0          1      )    f =(  0.2500000 )
                  (     0         -1          1      )       (  0.2500000 )
                  (    -1          0          1      )       (  0.2500000 )

 cart.    s(45) = (  0.0000000  0.0000000 -1.0000000 )    f =( -0.2500000 )
                  ( -1.0000000  0.0000000  0.0000000 )       (  0.2500000 )
                  (  0.0000000 -1.0000000  0.0000000 )       (  0.2500000 )


      isym = 46     inv. 120 deg rotation - cart. axis [-1,1,-1] 

 cryst.   s(46) = (     1         -1          0      )    f =(  0.2500000 )
                  (     1          0          0      )       (  0.2500000 )
                  (     1          0         -1      )       (  0.2500000 )

 cart.    s(46) = (  0.0000000  0.0000000 -1.0000000 )    f =( -0.2500000 )
                  (  1.0000000  0.0000000  0.0000000 )       (  0.2500000 )
                  (  0.0000000  1.0000000  0.0000000 )       (  0.2500000 )


      isym = 47     inv. 120 deg rotation - cart. axis [1,-1,-1] 

 cryst.   s(47) = (     0          0         -1      )    f =(  0.2500000 )
                  (    -1          0          0      )       (  0.2500000 )
                  (     0         -1          0      )       (  0.2500000 )

 cart.    s(47) = (  0.0000000  0.0000000  1.0000000 )    f =( -0.2500000 )
                  (  1.0000000  0.0000000  0.0000000 )       (  0.2500000 )
                  (  0.0000000 -1.0000000  0.0000000 )       (  0.2500000 )


      isym = 48     inv. 120 deg rotation - cart. axis [-1,-1,1] 

 cryst.   s(48) = (    -1          1          0      )    f =(  0.2500000 )
                  (     0          1         -1      )       (  0.2500000 )
                  (     0          1          0      )       (  0.2500000 )

 cart.    s(48) = (  0.0000000  0.0000000  1.0000000 )    f =( -0.2500000 )
                  ( -1.0000000  0.0000000  0.0000000 )       (  0.2500000 )
                  (  0.0000000  1.0000000  0.0000000 )       (  0.2500000 )


     point group O_h (m-3m) 
     there are 10 classes
     the character table:

       E     8C3   3C2   6C4   6C2'  i     8S6   3s_h  6S4   6s_d 
A_1g   1.00  1.00  1.00  1.00  1.00  1.00  1.00  1.00  1.00  1.00
A_2g   1.00  1.00  1.00 -1.00 -1.00  1.00  1.00  1.00 -1.00 -1.00
E_g    2.00 -1.00  2.00  0.00  0.00  2.00 -1.00  2.00  0.00  0.00
T_1g   3.00  0.00 -1.00  1.00 -1.00  3.00  0.00 -1.00  1.00 -1.00
T_2g   3.00  0.00 -1.00 -1.00  1.00  3.00  0.00 -1.00 -1.00  1.00
A_1u   1.00  1.00  1.00  1.00  1.00 -1.00 -1.00 -1.00 -1.00 -1.00
A_2u   1.00  1.00  1.00 -1.00 -1.00 -1.00 -1.00 -1.00  1.00  1.00
E_u    2.00 -1.00  2.00  0.00  0.00 -2.00  1.00 -2.00  0.00  0.00
T_1u   3.00  0.00 -1.00  1.00 -1.00 -3.00  0.00  1.00 -1.00  1.00
T_2u   3.00  0.00 -1.00 -1.00  1.00 -3.00  0.00  1.00  1.00 -1.00

     the symmetry operations in each class and the name of the first element:

     E        1
          identity                                               
     8C3     17   19   20   18   24   21   22   23
          120 deg rotation - cart. axis [-1,-1,-1]               
     3C2      2    4    3
          180 deg rotation - cart. axis [0,0,1]                  
     6C4      7    8   15   16   12   11
           90 deg rotation - cart. axis [0,0,-1]                 
     6C2'     5    6   14   13   10    9
          180 deg rotation - cart. axis [1,1,0]                  
     i       25
          inversion                                              
     8S6     41   43   44   42   48   45   46   47
          inv. 120 deg rotation - cart. axis [-1,-1,-1]          
     3s_h    26   28   27
          inv. 180 deg rotation - cart. axis [0,0,1]             
     6S4     31   32   39   40   36   35
          inv.  90 deg rotation - cart. axis [0,0,-1]            
     6s_d    29   30   38   37   34   33
          inv. 180 deg rotation - cart. axis [1,1,0]             

   Cartesian axes

     site n.     atom                  positions (alat units)
         1        Si     tau(   1) = (   0.0000000   0.0000000   0.0000000  )
         2        Si     tau(   2) = (   0.2500000   0.2500000   0.2500000  )

   Crystallographic axes

     site n.     atom                  positions (cryst. coord.)
         1        Si     tau(   1) = (  0.0000000  0.0000000  0.0000000  )
         2        Si     tau(   2) = ( -0.2500000  0.7500000 -0.2500000  )

     number of k points=   231
                       cart. coord. in units 2pi/alat
        k(    1) = (  -0.5000000   0.5000000   0.5000000), wk =   0.0086580
        k(    2) = (  -0.4929577   0.4929577   0.4929577), wk =   0.0086580
        k(    3) = (  -0.4859155   0.4859155   0.4859155), wk =   0.0086580
        k(    4) = (  -0.4788732   0.4788732   0.4788732), wk =   0.0086580
        k(    5) = (  -0.4718310   0.4718310   0.4718310), wk =   0.0086580
        k(    6) = (  -0.4647887   0.4647887   0.4647887), wk =   0.0086580
        k(    7) = (  -0.4577465   0.4577465   0.4577465), wk =   0.0086580
        k(    8) = (  -0.4507042   0.4507042   0.4507042), wk =   0.0086580
        k(    9) = (  -0.4436620   0.4436620   0.4436620), wk =   0.0086580
        k(   10) = (  -0.4366197   0.4366197   0.4366197), wk =   0.0086580
        k(   11) = (  -0.4295775   0.4295775   0.4295775), wk =   0.0086580
        k(   12) = (  -0.4225352   0.4225352   0.4225352), wk =   0.0086580
        k(   13) = (  -0.4154930   0.4154930   0.4154930), wk =   0.0086580
        k(   14) = (  -0.4084507   0.4084507   0.4084507), wk =   0.0086580
        k(   15) = (  -0.4014085   0.4014085   0.4014085), wk =   0.0086580
        k(   16) = (  -0.3943662   0.3943662   0.3943662), wk =   0.0086580
        k(   17) = (  -0.3873239   0.3873239   0.3873239), wk =   0.0086580
        k(   18) = (  -0.3802817   0.3802817   0.3802817), wk =   0.0086580
        k(   19) = (  -0.3732394   0.3732394   0.3732394), wk =   0.0086580
        k(   20) = (  -0.3661972   0.3661972   0.3661972), wk =   0.0086580
        k(   21) = (  -0.3591549   0.3591549   0.3591549), wk =   0.0086580
        k(   22) = (  -0.3521127   0.3521127   0.3521127), wk =   0.0086580
        k(   23) = (  -0.3450704   0.3450704   0.3450704), wk =   0.0086580
        k(   24) = (  -0.3380282   0.3380282   0.3380282), wk =   0.0086580
        k(   25) = (  -0.3309859   0.3309859   0.3309859), wk =   0.0086580
        k(   26) = (  -0.3239437   0.3239437   0.3239437), wk =   0.0086580
        k(   27) = (  -0.3169014   0.3169014   0.3169014), wk =   0.0086580
        k(   28) = (  -0.3098592   0.3098592   0.3098592), wk =   0.0086580
        k(   29) = (  -0.3028169   0.3028169   0.3028169), wk =   0.0086580
        k(   30) = (  -0.2957746   0.2957746   0.2957746), wk =   0.0086580
        k(   31) = (  -0.2887324   0.2887324   0.2887324), wk =   0.0086580
        k(   32) = (  -0.2816901   0.2816901   0.2816901), wk =   0.0086580
        k(   33) = (  -0.2746479   0.2746479   0.2746479), wk =   0.0086580
        k(   34) = (  -0.2676056   0.2676056   0.2676056), wk =   0.0086580
        k(   35) = (  -0.2605634   0.2605634   0.2605634), wk =   0.0086580
        k(   36) = (  -0.2535211   0.2535211   0.2535211), wk =   0.0086580
        k(   37) = (  -0.2464789   0.2464789   0.2464789), wk =   0.0086580
        k(   38) = (  -0.2394366   0.2394366   0.2394366), wk =   0.0086580
        k(   39) = (  -0.2323944   0.2323944   0.2323944), wk =   0.0086580
        k(   40) = (  -0.2253521   0.2253521   0.2253521), wk =   0.0086580
        k(   41) = (  -0.2183099   0.2183099   0.2183099), wk =   0.0086580
        k(   42) = (  -0.2112676   0.2112676   0.2112676), wk =   0.0086580
        k(   43) = (  -0.2042254   0.2042254   0.2042254), wk =   0.0086580
        k(   44) = (  -0.1971831   0.1971831   0.1971831), wk =   0.0086580
        k(   45) = (  -0.1901408   0.1901408   0.1901408), wk =   0.0086580
        k(   46) = (  -0.1830986   0.1830986   0.1830986), wk =   0.0086580
        k(   47) = (  -0.1760563   0.1760563   0.1760563), wk =   0.0086580
        k(   48) = (  -0.1690141   0.1690141   0.1690141), wk =   0.0086580
        k(   49) = (  -0.1619718   0.1619718   0.1619718), wk =   0.0086580
        k(   50) = (  -0.1549296   0.1549296   0.1549296), wk =   0.0086580
        k(   51) = (  -0.1478873   0.1478873   0.1478873), wk =   0.0086580
        k(   52) = (  -0.1408451   0.1408451   0.1408451), wk =   0.0086580
        k(   53) = (  -0.1338028   0.1338028   0.1338028), wk =   0.0086580
        k(   54) = (  -0.1267606   0.1267606   0.1267606), wk =   0.0086580
        k(   55) = (  -0.1197183   0.1197183   0.1197183), wk =   0.0086580
        k(   56) = (  -0.1126761   0.1126761   0.1126761), wk =   0.0086580
        k(   57) = (  -0.1056338   0.1056338   0.1056338), wk =   0.0086580
        k(   58) = (  -0.0985915   0.0985915   0.0985915), wk =   0.0086580
        k(   59) = (  -0.0915493   0.0915493   0.0915493), wk =   0.0086580
        k(   60) = (  -0.0845070   0.0845070   0.0845070), wk =   0.0086580
        k(   61) = (  -0.0774648   0.0774648   0.0774648), wk =   0.0086580
        k(   62) = (  -0.0704225   0.0704225   0.0704225), wk =   0.0086580
        k(   63) = (  -0.0633803   0.0633803   0.0633803), wk =   0.0086580
        k(   64) = (  -0.0563380   0.0563380   0.0563380), wk =   0.0086580
        k(   65) = (  -0.0492958   0.0492958   0.0492958), wk =   0.0086580
        k(   66) = (  -0.0422535   0.0422535   0.0422535), wk =   0.0086580
        k(   67) = (  -0.0352113   0.0352113   0.0352113), wk =   0.0086580
        k(   68) = (  -0.0281690   0.0281690   0.0281690), wk =   0.0086580
        k(   69) = (  -0.0211268   0.0211268   0.0211268), wk =   0.0086580
        k(   70) = (  -0.0140845   0.0140845   0.0140845), wk =   0.0086580
        k(   71) = (  -0.0070423   0.0070423   0.0070423), wk =   0.0086580
        k(   72) = (   0.0000000   0.0000000   0.0000000), wk =   0.0086580
        k(   73) = (  -0.0172414   0.0000000   0.0000000), wk =   0.0086580
        k(   74) = (  -0.0344828   0.0000000   0.0000000), wk =   0.0086580
        k(   75) = (  -0.0517241   0.0000000   0.0000000), wk =   0.0086580
        k(   76) = (  -0.0689655   0.0000000   0.0000000), wk =   0.0086580
        k(   77) = (  -0.0862069   0.0000000   0.0000000), wk =   0.0086580
        k(   78) = (  -0.1034483   0.0000000   0.0000000), wk =   0.0086580
        k(   79) = (  -0.1206897   0.0000000   0.0000000), wk =   0.0086580
        k(   80) = (  -0.1379310   0.0000000   0.0000000), wk =   0.0086580
        k(   81) = (  -0.1551724   0.0000000   0.0000000), wk =   0.0086580
        k(   82) = (  -0.1724138   0.0000000   0.0000000), wk =   0.0086580
        k(   83) = (  -0.1896552   0.0000000   0.0000000), wk =   0.0086580
        k(   84) = (  -0.2068966   0.0000000   0.0000000), wk =   0.0086580
        k(   85) = (  -0.2241379   0.0000000   0.0000000), wk =   0.0086580
        k(   86) = (  -0.2413793   0.0000000   0.0000000), wk =   0.0086580
        k(   87) = (  -0.2586207   0.0000000   0.0000000), wk =   0.0086580
        k(   88) = (  -0.2758621   0.0000000   0.0000000), wk =   0.0086580
        k(   89) = (  -0.2931034   0.0000000   0.0000000), wk =   0.0086580
        k(   90) = (  -0.3103448   0.0000000   0.0000000), wk =   0.0086580
        k(   91) = (  -0.3275862   0.0000000   0.0000000), wk =   0.0086580
        k(   92) = (  -0.3448276   0.0000000   0.0000000), wk =   0.0086580
        k(   93) = (  -0.3620690   0.0000000   0.0000000), wk =   0.0086580
        k(   94) = (  -0.3793103   0.0000000   0.0000000), wk =   0.0086580
        k(   95) = (  -0.3965517   0.0000000   0.0000000), wk =   0.0086580
        k(   96) = (  -0.4137931   0.0000000   0.0000000), wk =   0.0086580
        k(   97) = (  -0.4310345   0.0000000   0.0000000), wk =   0.0086580
        k(   98) = (  -0.4482759   0.0000000   0.0000000), wk =   0.0086580
        k(   99) = (  -0.4655172   0.0000000   0.0000000), wk =   0.0086580
        k(  100) = (  -0.4827586   0.0000000   0.0000000), wk =   0.0086580
        k(  101) = (  -0.5000000   0.0000000   0.0000000), wk =   0.0086580
        k(  102) = (  -0.5172414   0.0000000   0.0000000), wk =   0.0086580
        k(  103) = (  -0.5344828   0.0000000   0.0000000), wk =   0.0086580
        k(  104) = (  -0.5517241   0.0000000   0.0000000), wk =   0.0086580
        k(  105) = (  -0.5689655   0.0000000   0.0000000), wk =   0.0086580
        k(  106) = (  -0.5862069   0.0000000   0.0000000), wk =   0.0086580
        k(  107) = (  -0.6034483   0.0000000   0.0000000), wk =   0.0086580
        k(  108) = (  -0.6206897   0.0000000   0.0000000), wk =   0.0086580
        k(  109) = (  -0.6379310   0.0000000   0.0000000), wk =   0.0086580
        k(  110) = (  -0.6551724   0.0000000   0.0000000), wk =   0.0086580
        k(  111) = (  -0.6724138   0.0000000   0.0000000), wk =   0.0086580
        k(  112) = (  -0.6896552   0.0000000   0.0000000), wk =   0.0086580
        k(  113) = (  -0.7068966   0.0000000   0.0000000), wk =   0.0086580
        k(  114) = (  -0.7241379   0.0000000   0.0000000), wk =   0.0086580
        k(  115) = (  -0.7413793   0.0000000   0.0000000), wk =   0.0086580
        k(  116) = (  -0.7586207   0.0000000   0.0000000), wk =   0.0086580
        k(  117) = (  -0.7758621   0.0000000   0.0000000), wk =   0.0086580
        k(  118) = (  -0.7931034   0.0000000   0.0000000), wk =   0.0086580
        k(  119) = (  -0.8103448   0.0000000   0.0000000), wk =   0.0086580
        k(  120) = (  -0.8275862   0.0000000   0.0000000), wk =   0.0086580
        k(  121) = (  -0.8448276   0.0000000   0.0000000), wk =   0.0086580
        k(  122) = (  -0.8620690   0.0000000   0.0000000), wk =   0.0086580
        k(  123) = (  -0.8793103   0.0000000   0.0000000), wk =   0.0086580
        k(  124) = (  -0.8965517   0.0000000   0.0000000), wk =   0.0086580
        k(  125) = (  -0.9137931   0.0000000   0.0000000), wk =   0.0086580
        k(  126) = (  -0.9310345   0.0000000   0.0000000), wk =   0.0086580
        k(  127) = (  -0.9482759   0.0000000   0.0000000), wk =   0.0086580
        k(  128) = (  -0.9655172   0.0000000   0.0000000), wk =   0.0086580
        k(  129) = (  -0.9827586   0.0000000   0.0000000), wk =   0.0086580
        k(  130) = (  -1.0000000   0.0000000   0.0000000), wk =   0.0086580
        k(  131) = (  -1.0000000   0.0100000   0.0100000), wk =   0.0086580
        k(  132) = (  -1.0000000   0.0200000   0.0200000), wk =   0.0086580
        k(  133) = (  -1.0000000   0.0300000   0.0300000), wk =   0.0086580
        k(  134) = (  -1.0000000   0.0400000   0.0400000), wk =   0.0086580
        k(  135) = (  -1.0000000   0.0500000   0.0500000), wk =   0.0086580
        k(  136) = (  -1.0000000   0.0600000   0.0600000), wk =   0.0086580
        k(  137) = (  -1.0000000   0.0700000   0.0700000), wk =   0.0086580
        k(  138) = (  -1.0000000   0.0800000   0.0800000), wk =   0.0086580
        k(  139) = (  -1.0000000   0.0900000   0.0900000), wk =   0.0086580
        k(  140) = (  -1.0000000   0.1000000   0.1000000), wk =   0.0086580
        k(  141) = (  -1.0000000   0.1100000   0.1100000), wk =   0.0086580
        k(  142) = (  -1.0000000   0.1200000   0.1200000), wk =   0.0086580
        k(  143) = (  -1.0000000   0.1300000   0.1300000), wk =   0.0086580
        k(  144) = (  -1.0000000   0.1400000   0.1400000), wk =   0.0086580
        k(  145) = (  -1.0000000   0.1500000   0.1500000), wk =   0.0086580
        k(  146) = (  -1.0000000   0.1600000   0.1600000), wk =   0.0086580
        k(  147) = (  -1.0000000   0.1700000   0.1700000), wk =   0.0086580
        k(  148) = (  -1.0000000   0.1800000   0.1800000), wk =   0.0086580
        k(  149) = (  -1.0000000   0.1900000   0.1900000), wk =   0.0086580
        k(  150) = (  -1.0000000   0.2000000   0.2000000), wk =   0.0086580
        k(  151) = (  -1.0000000   0.2100000   0.2100000), wk =   0.0086580
        k(  152) = (  -1.0000000   0.2200000   0.2200000), wk =   0.0086580
        k(  153) = (  -1.0000000   0.2300000   0.2300000), wk =   0.0086580
        k(  154) = (  -1.0000000   0.2400000   0.2400000), wk =   0.0086580
        k(  155) = (  -1.0000000   0.2500000   0.2500000), wk =   0.0086580
        k(  156) = (  -0.7500000   0.0000000   0.7500000), wk =   0.0086580
        k(  157) = (  -0.7400000   0.0000000   0.7400000), wk =   0.0086580
        k(  158) = (  -0.7300000   0.0000000   0.7300000), wk =   0.0086580
        k(  159) = (  -0.7200000   0.0000000   0.7200000), wk =   0.0086580
        k(  160) = (  -0.7100000   0.0000000   0.7100000), wk =   0.0086580
        k(  161) = (  -0.7000000   0.0000000   0.7000000), wk =   0.0086580
        k(  162) = (  -0.6900000   0.0000000   0.6900000), wk =   0.0086580
        k(  163) = (  -0.6800000   0.0000000   0.6800000), wk =   0.0086580
        k(  164) = (  -0.6700000   0.0000000   0.6700000), wk =   0.0086580
        k(  165) = (  -0.6600000   0.0000000   0.6600000), wk =   0.0086580
        k(  166) = (  -0.6500000   0.0000000   0.6500000), wk =   0.0086580
        k(  167) = (  -0.6400000   0.0000000   0.6400000), wk =   0.0086580
        k(  168) = (  -0.6300000   0.0000000   0.6300000), wk =   0.0086580
        k(  169) = (  -0.6200000   0.0000000   0.6200000), wk =   0.0086580
        k(  170) = (  -0.6100000   0.0000000   0.6100000), wk =   0.0086580
        k(  171) = (  -0.6000000   0.0000000   0.6000000), wk =   0.0086580
        k(  172) = (  -0.5900000   0.0000000   0.5900000), wk =   0.0086580
        k(  173) = (  -0.5800000   0.0000000   0.5800000), wk =   0.0086580
        k(  174) = (  -0.5700000   0.0000000   0.5700000), wk =   0.0086580
        k(  175) = (  -0.5600000   0.0000000   0.5600000), wk =   0.0086580
        k(  176) = (  -0.5500000   0.0000000   0.5500000), wk =   0.0086580
        k(  177) = (  -0.5400000   0.0000000   0.5400000), wk =   0.0086580
        k(  178) = (  -0.5300000   0.0000000   0.5300000), wk =   0.0086580
        k(  179) = (  -0.5200000   0.0000000   0.5200000), wk =   0.0086580
        k(  180) = (  -0.5100000   0.0000000   0.5100000), wk =   0.0086580
        k(  181) = (  -0.5000000   0.0000000   0.5000000), wk =   0.0086580
        k(  182) = (  -0.4900000   0.0000000   0.4900000), wk =   0.0086580
        k(  183) = (  -0.4800000   0.0000000   0.4800000), wk =   0.0086580
        k(  184) = (  -0.4700000   0.0000000   0.4700000), wk =   0.0086580
        k(  185) = (  -0.4600000   0.0000000   0.4600000), wk =   0.0086580
        k(  186) = (  -0.4500000   0.0000000   0.4500000), wk =   0.0086580
        k(  187) = (  -0.4400000   0.0000000   0.4400000), wk =   0.0086580
        k(  188) = (  -0.4300000   0.0000000   0.4300000), wk =   0.0086580
        k(  189) = (  -0.4200000   0.0000000   0.4200000), wk =   0.0086580
        k(  190) = (  -0.4100000   0.0000000   0.4100000), wk =   0.0086580
        k(  191) = (  -0.4000000   0.0000000   0.4000000), wk =   0.0086580
        k(  192) = (  -0.3900000   0.0000000   0.3900000), wk =   0.0086580
        k(  193) = (  -0.3800000   0.0000000   0.3800000), wk =   0.0086580
        k(  194) = (  -0.3700000   0.0000000   0.3700000), wk =   0.0086580
        k(  195) = (  -0.3600000   0.0000000   0.3600000), wk =   0.0086580
        k(  196) = (  -0.3500000   0.0000000   0.3500000), wk =   0.0086580
        k(  197) = (  -0.3400000   0.0000000   0.3400000), wk =   0.0086580
        k(  198) = (  -0.3300000   0.0000000   0.3300000), wk =   0.0086580
        k(  199) = (  -0.3200000   0.0000000   0.3200000), wk =   0.0086580
        k(  200) = (  -0.3100000   0.0000000   0.3100000), wk =   0.0086580
        k(  201) = (  -0.3000000   0.0000000   0.3000000), wk =   0.0086580
        k(  202) = (  -0.2900000   0.0000000   0.2900000), wk =   0.0086580
        k(  203) = (  -0.2800000   0.0000000   0.2800000), wk =   0.0086580
        k(  204) = (  -0.2700000   0.0000000   0.2700000), wk =   0.0086580
        k(  205) = (  -0.2600000   0.0000000   0.2600000), wk =   0.0086580
        k(  206) = (  -0.2500000   0.0000000   0.2500000), wk =   0.0086580
        k(  207) = (  -0.2400000   0.0000000   0.2400000), wk =   0.0086580
        k(  208) = (  -0.2300000   0.0000000   0.2300000), wk =   0.0086580
        k(  209) = (  -0.2200000   0.0000000   0.2200000), wk =   0.0086580
        k(  210) = (  -0.2100000   0.0000000   0.2100000), wk =   0.0086580
        k(  211) = (  -0.2000000   0.0000000   0.2000000), wk =   0.0086580
        k(  212) = (  -0.1900000   0.0000000   0.1900000), wk =   0.0086580
        k(  213) = (  -0.1800000   0.0000000   0.1800000), wk =   0.0086580
        k(  214) = (  -0.1700000   0.0000000   0.1700000), wk =   0.0086580
        k(  215) = (  -0.1600000   0.0000000   0.1600000), wk =   0.0086580
        k(  216) = (  -0.1500000   0.0000000   0.1500000), wk =   0.0086580
        k(  217) = (  -0.1400000   0.0000000   0.1400000), wk =   0.0086580
        k(  218) = (  -0.1300000   0.0000000   0.1300000), wk =   0.0086580
        k(  219) = (  -0.1200000   0.0000000   0.1200000), wk =   0.0086580
        k(  220) = (  -0.1100000   0.0000000   0.1100000), wk =   0.0086580
        k(  221) = (  -0.1000000   0.0000000   0.1000000), wk =   0.0086580
        k(  222) = (  -0.0900000   0.0000000   0.0900000), wk =   0.0086580
        k(  223) = (  -0.0800000   0.0000000   0.0800000), wk =   0.0086580
        k(  224) = (  -0.0700000   0.0000000   0.0700000), wk =   0.0086580
        k(  225) = (  -0.0600000   0.0000000   0.0600000), wk =   0.0086580
        k(  226) = (  -0.0500000   0.0000000   0.0500000), wk =   0.0086580
        k(  227) = (  -0.0400000   0.0000000   0.0400000), wk =   0.0086580
        k(  228) = (  -0.0300000   0.0000000   0.0300000), wk =   0.0086580
        k(  229) = (  -0.0200000   0.0000000   0.0200000), wk =   0.0086580
        k(  230) = (  -0.0100000   0.0000000   0.0100000), wk =   0.0086580
        k(  231) = (   0.0000000   0.0000000   0.0000000), wk =   0.0086580

                       cryst. coord.
        k(    1) = (   0.5000000   0.5000000   0.5000000), wk =   0.0086580
        k(    2) = (   0.4929577   0.4929577   0.4929577), wk =   0.0086580
        k(    3) = (   0.4859155   0.4859155   0.4859155), wk =   0.0086580
        k(    4) = (   0.4788732   0.4788732   0.4788732), wk =   0.0086580
        k(    5) = (   0.4718310   0.4718310   0.4718310), wk =   0.0086580
        k(    6) = (   0.4647887   0.4647887   0.4647887), wk =   0.0086580
        k(    7) = (   0.4577465   0.4577465   0.4577465), wk =   0.0086580
        k(    8) = (   0.4507042   0.4507042   0.4507042), wk =   0.0086580
        k(    9) = (   0.4436620   0.4436620   0.4436620), wk =   0.0086580
        k(   10) = (   0.4366197   0.4366197   0.4366197), wk =   0.0086580
        k(   11) = (   0.4295775   0.4295775   0.4295775), wk =   0.0086580
        k(   12) = (   0.4225352   0.4225352   0.4225352), wk =   0.0086580
        k(   13) = (   0.4154930   0.4154930   0.4154930), wk =   0.0086580
        k(   14) = (   0.4084507   0.4084507   0.4084507), wk =   0.0086580
        k(   15) = (   0.4014085   0.4014085   0.4014085), wk =   0.0086580
        k(   16) = (   0.3943662   0.3943662   0.3943662), wk =   0.0086580
        k(   17) = (   0.3873239   0.3873239   0.3873239), wk =   0.0086580
        k(   18) = (   0.3802817   0.3802817   0.3802817), wk =   0.0086580
        k(   19) = (   0.3732394   0.3732394   0.3732394), wk =   0.0086580
        k(   20) = (   0.3661972   0.3661972   0.3661972), wk =   0.0086580
        k(   21) = (   0.3591549   0.3591549   0.3591549), wk =   0.0086580
        k(   22) = (   0.3521127   0.3521127   0.3521127), wk =   0.0086580
        k(   23) = (   0.3450704   0.3450704   0.3450704), wk =   0.0086580
        k(   24) = (   0.3380282   0.3380282   0.3380282), wk =   0.0086580
        k(   25) = (   0.3309859   0.3309859   0.3309859), wk =   0.0086580
        k(   26) = (   0.3239437   0.3239437   0.3239437), wk =   0.0086580
        k(   27) = (   0.3169014   0.3169014   0.3169014), wk =   0.0086580
        k(   28) = (   0.3098592   0.3098592   0.3098592), wk =   0.0086580
        k(   29) = (   0.3028169   0.3028169   0.3028169), wk =   0.0086580
        k(   30) = (   0.2957746   0.2957746   0.2957746), wk =   0.0086580
        k(   31) = (   0.2887324   0.2887324   0.2887324), wk =   0.0086580
        k(   32) = (   0.2816901   0.2816901   0.2816901), wk =   0.0086580
        k(   33) = (   0.2746479   0.2746479   0.2746479), wk =   0.0086580
        k(   34) = (   0.2676056   0.2676056   0.2676056), wk =   0.0086580
        k(   35) = (   0.2605634   0.2605634   0.2605634), wk =   0.0086580
        k(   36) = (   0.2535211   0.2535211   0.2535211), wk =   0.0086580
        k(   37) = (   0.2464789   0.2464789   0.2464789), wk =   0.0086580
        k(   38) = (   0.2394366   0.2394366   0.2394366), wk =   0.0086580
        k(   39) = (   0.2323944   0.2323944   0.2323944), wk =   0.0086580
        k(   40) = (   0.2253521   0.2253521   0.2253521), wk =   0.0086580
        k(   41) = (   0.2183099   0.2183099   0.2183099), wk =   0.0086580
        k(   42) = (   0.2112676   0.2112676   0.2112676), wk =   0.0086580
        k(   43) = (   0.2042254   0.2042254   0.2042254), wk =   0.0086580
        k(   44) = (   0.1971831   0.1971831   0.1971831), wk =   0.0086580
        k(   45) = (   0.1901408   0.1901408   0.1901408), wk =   0.0086580
        k(   46) = (   0.1830986   0.1830986   0.1830986), wk =   0.0086580
        k(   47) = (   0.1760563   0.1760563   0.1760563), wk =   0.0086580
        k(   48) = (   0.1690141   0.1690141   0.1690141), wk =   0.0086580
        k(   49) = (   0.1619718   0.1619718   0.1619718), wk =   0.0086580
        k(   50) = (   0.1549296   0.1549296   0.1549296), wk =   0.0086580
        k(   51) = (   0.1478873   0.1478873   0.1478873), wk =   0.0086580
        k(   52) = (   0.1408451   0.1408451   0.1408451), wk =   0.0086580
        k(   53) = (   0.1338028   0.1338028   0.1338028), wk =   0.0086580
        k(   54) = (   0.1267606   0.1267606   0.1267606), wk =   0.0086580
        k(   55) = (   0.1197183   0.1197183   0.1197183), wk =   0.0086580
        k(   56) = (   0.1126761   0.1126761   0.1126761), wk =   0.0086580
        k(   57) = (   0.1056338   0.1056338   0.1056338), wk =   0.0086580
        k(   58) = (   0.0985915   0.0985915   0.0985915), wk =   0.0086580
        k(   59) = (   0.0915493   0.0915493   0.0915493), wk =   0.0086580
        k(   60) = (   0.0845070   0.0845070   0.0845070), wk =   0.0086580
        k(   61) = (   0.0774648   0.0774648   0.0774648), wk =   0.0086580
        k(   62) = (   0.0704225   0.0704225   0.0704225), wk =   0.0086580
        k(   63) = (   0.0633803   0.0633803   0.0633803), wk =   0.0086580
        k(   64) = (   0.0563380   0.0563380   0.0563380), wk =   0.0086580
        k(   65) = (   0.0492958   0.0492958   0.0492958), wk =   0.0086580
        k(   66) = (   0.0422535   0.0422535   0.0422535), wk =   0.0086580
        k(   67) = (   0.0352113   0.0352113   0.0352113), wk =   0.0086580
        k(   68) = (   0.0281690   0.0281690   0.0281690), wk =   0.0086580
        k(   69) = (   0.0211268   0.0211268   0.0211268), wk =   0.0086580
        k(   70) = (   0.0140845   0.0140845   0.0140845), wk =   0.0086580
        k(   71) = (   0.0070423   0.0070423   0.0070423), wk =   0.0086580
        k(   72) = (   0.0000000   0.0000000   0.0000000), wk =   0.0086580
        k(   73) = (   0.0086207   0.0000000   0.0086207), wk =   0.0086580
        k(   74) = (   0.0172414   0.0000000   0.0172414), wk =   0.0086580
        k(   75) = (   0.0258621   0.0000000   0.0258621), wk =   0.0086580
        k(   76) = (   0.0344828   0.0000000   0.0344828), wk =   0.0086580
        k(   77) = (   0.0431034   0.0000000   0.0431034), wk =   0.0086580
        k(   78) = (   0.0517241   0.0000000   0.0517241), wk =   0.0086580
        k(   79) = (   0.0603448   0.0000000   0.0603448), wk =   0.0086580
        k(   80) = (   0.0689655   0.0000000   0.0689655), wk =   0.0086580
        k(   81) = (   0.0775862   0.0000000   0.0775862), wk =   0.0086580
        k(   82) = (   0.0862069   0.0000000   0.0862069), wk =   0.0086580
        k(   83) = (   0.0948276   0.0000000   0.0948276), wk =   0.0086580
        k(   84) = (   0.1034483   0.0000000   0.1034483), wk =   0.0086580
        k(   85) = (   0.1120690   0.0000000   0.1120690), wk =   0.0086580
        k(   86) = (   0.1206897   0.0000000   0.1206897), wk =   0.0086580
        k(   87) = (   0.1293103   0.0000000   0.1293103), wk =   0.0086580
        k(   88) = (   0.1379310   0.0000000   0.1379310), wk =   0.0086580
        k(   89) = (   0.1465517   0.0000000   0.1465517), wk =   0.0086580
        k(   90) = (   0.1551724   0.0000000   0.1551724), wk =   0.0086580
        k(   91) = (   0.1637931   0.0000000   0.1637931), wk =   0.0086580
        k(   92) = (   0.1724138   0.0000000   0.1724138), wk =   0.0086580
        k(   93) = (   0.1810345   0.0000000   0.1810345), wk =   0.0086580
        k(   94) = (   0.1896552   0.0000000   0.1896552), wk =   0.0086580
        k(   95) = (   0.1982759   0.0000000   0.1982759), wk =   0.0086580
        k(   96) = (   0.2068966   0.0000000   0.2068966), wk =   0.0086580
        k(   97) = (   0.2155172   0.0000000   0.2155172), wk =   0.0086580
        k(   98) = (   0.2241379   0.0000000   0.2241379), wk =   0.0086580
        k(   99) = (   0.2327586   0.0000000   0.2327586), wk =   0.0086580
        k(  100) = (   0.2413793   0.0000000   0.2413793), wk =   0.0086580
        k(  101) = (   0.2500000   0.0000000   0.2500000), wk =   0.0086580
        k(  102) = (   0.2586207   0.0000000   0.2586207), wk =   0.0086580
        k(  103) = (   0.2672414   0.0000000   0.2672414), wk =   0.0086580
        k(  104) = (   0.2758621   0.0000000   0.2758621), wk =   0.0086580
        k(  105) = (   0.2844828   0.0000000   0.2844828), wk =   0.0086580
        k(  106) = (   0.2931034   0.0000000   0.2931034), wk =   0.0086580
        k(  107) = (   0.3017241   0.0000000   0.3017241), wk =   0.0086580
        k(  108) = (   0.3103448   0.0000000   0.3103448), wk =   0.0086580
        k(  109) = (   0.3189655   0.0000000   0.3189655), wk =   0.0086580
        k(  110) = (   0.3275862   0.0000000   0.3275862), wk =   0.0086580
        k(  111) = (   0.3362069   0.0000000   0.3362069), wk =   0.0086580
        k(  112) = (   0.3448276   0.0000000   0.3448276), wk =   0.0086580
        k(  113) = (   0.3534483   0.0000000   0.3534483), wk =   0.0086580
        k(  114) = (   0.3620690   0.0000000   0.3620690), wk =   0.0086580
        k(  115) = (   0.3706897   0.0000000   0.3706897), wk =   0.0086580
        k(  116) = (   0.3793103   0.0000000   0.3793103), wk =   0.0086580
        k(  117) = (   0.3879310   0.0000000   0.3879310), wk =   0.0086580
        k(  118) = (   0.3965517   0.0000000   0.3965517), wk =   0.0086580
        k(  119) = (   0.4051724   0.0000000   0.4051724), wk =   0.0086580
        k(  120) = (   0.4137931   0.0000000   0.4137931), wk =   0.0086580
        k(  121) = (   0.4224138   0.0000000   0.4224138), wk =   0.0086580
        k(  122) = (   0.4310345   0.0000000   0.4310345), wk =   0.0086580
        k(  123) = (   0.4396552   0.0000000   0.4396552), wk =   0.0086580
        k(  124) = (   0.4482759   0.0000000   0.4482759), wk =   0.0086580
        k(  125) = (   0.4568966   0.0000000   0.4568966), wk =   0.0086580
        k(  126) = (   0.4655172   0.0000000   0.4655172), wk =   0.0086580
        k(  127) = (   0.4741379   0.0000000   0.4741379), wk =   0.0086580
        k(  128) = (   0.4827586   0.0000000   0.4827586), wk =   0.0086580
        k(  129) = (   0.4913793   0.0000000   0.4913793), wk =   0.0086580
        k(  130) = (   0.5000000   0.0000000   0.5000000), wk =   0.0086580
        k(  131) = (   0.5050000   0.0100000   0.5050000), wk =   0.0086580
        k(  132) = (   0.5100000   0.0200000   0.5100000), wk =   0.0086580
        k(  133) = (   0.5150000   0.0300000   0.5150000), wk =   0.0086580
        k(  134) = (   0.5200000   0.0400000   0.5200000), wk =   0.0086580
        k(  135) = (   0.5250000   0.0500000   0.5250000), wk =   0.0086580
        k(  136) = (   0.5300000   0.0600000   0.5300000), wk =   0.0086580
        k(  137) = (   0.5350000   0.0700000   0.5350000), wk =   0.0086580
        k(  138) = (   0.5400000   0.0800000   0.5400000), wk =   0.0086580
        k(  139) = (   0.5450000   0.0900000   0.5450000), wk =   0.0086580
        k(  140) = (   0.5500000   0.1000000   0.5500000), wk =   0.0086580
        k(  141) = (   0.5550000   0.1100000   0.5550000), wk =   0.0086580
        k(  142) = (   0.5600000   0.1200000   0.5600000), wk =   0.0086580
        k(  143) = (   0.5650000   0.1300000   0.5650000), wk =   0.0086580
        k(  144) = (   0.5700000   0.1400000   0.5700000), wk =   0.0086580
        k(  145) = (   0.5750000   0.1500000   0.5750000), wk =   0.0086580
        k(  146) = (   0.5800000   0.1600000   0.5800000), wk =   0.0086580
        k(  147) = (   0.5850000   0.1700000   0.5850000), wk =   0.0086580
        k(  148) = (   0.5900000   0.1800000   0.5900000), wk =   0.0086580
        k(  149) = (   0.5950000   0.1900000   0.5950000), wk =   0.0086580
        k(  150) = (   0.6000000   0.2000000   0.6000000), wk =   0.0086580
        k(  151) = (   0.6050000   0.2100000   0.6050000), wk =   0.0086580
        k(  152) = (   0.6100000   0.2200000   0.6100000), wk =   0.0086580
        k(  153) = (   0.6150000   0.2300000   0.6150000), wk =   0.0086580
        k(  154) = (   0.6200000   0.2400000   0.6200000), wk =   0.0086580
        k(  155) = (   0.6250000   0.2500000   0.6250000), wk =   0.0086580
        k(  156) = (   0.7500000   0.3750000   0.3750000), wk =   0.0086580
        k(  157) = (   0.7400000   0.3700000   0.3700000), wk =   0.0086580
        k(  158) = (   0.7300000   0.3650000   0.3650000), wk =   0.0086580
        k(  159) = (   0.7200000   0.3600000   0.3600000), wk =   0.0086580
        k(  160) = (   0.7100000   0.3550000   0.3550000), wk =   0.0086580
        k(  161) = (   0.7000000   0.3500000   0.3500000), wk =   0.0086580
        k(  162) = (   0.6900000   0.3450000   0.3450000), wk =   0.0086580
        k(  163) = (   0.6800000   0.3400000   0.3400000), wk =   0.0086580
        k(  164) = (   0.6700000   0.3350000   0.3350000), wk =   0.0086580
        k(  165) = (   0.6600000   0.3300000   0.3300000), wk =   0.0086580
        k(  166) = (   0.6500000   0.3250000   0.3250000), wk =   0.0086580
        k(  167) = (   0.6400000   0.3200000   0.3200000), wk =   0.0086580
        k(  168) = (   0.6300000   0.3150000   0.3150000), wk =   0.0086580
        k(  169) = (   0.6200000   0.3100000   0.3100000), wk =   0.0086580
        k(  170) = (   0.6100000   0.3050000   0.3050000), wk =   0.0086580
        k(  171) = (   0.6000000   0.3000000   0.3000000), wk =   0.0086580
        k(  172) = (   0.5900000   0.2950000   0.2950000), wk =   0.0086580
        k(  173) = (   0.5800000   0.2900000   0.2900000), wk =   0.0086580
        k(  174) = (   0.5700000   0.2850000   0.2850000), wk =   0.0086580
        k(  175) = (   0.5600000   0.2800000   0.2800000), wk =   0.0086580
        k(  176) = (   0.5500000   0.2750000   0.2750000), wk =   0.0086580
        k(  177) = (   0.5400000   0.2700000   0.2700000), wk =   0.0086580
        k(  178) = (   0.5300000   0.2650000   0.2650000), wk =   0.0086580
        k(  179) = (   0.5200000   0.2600000   0.2600000), wk =   0.0086580
        k(  180) = (   0.5100000   0.2550000   0.2550000), wk =   0.0086580
        k(  181) = (   0.5000000   0.2500000   0.2500000), wk =   0.0086580
        k(  182) = (   0.4900000   0.2450000   0.2450000), wk =   0.0086580
        k(  183) = (   0.4800000   0.2400000   0.2400000), wk =   0.0086580
        k(  184) = (   0.4700000   0.2350000   0.2350000), wk =   0.0086580
        k(  185) = (   0.4600000   0.2300000   0.2300000), wk =   0.0086580
        k(  186) = (   0.4500000   0.2250000   0.2250000), wk =   0.0086580
        k(  187) = (   0.4400000   0.2200000   0.2200000), wk =   0.0086580
        k(  188) = (   0.4300000   0.2150000   0.2150000), wk =   0.0086580
        k(  189) = (   0.4200000   0.2100000   0.2100000), wk =   0.0086580
        k(  190) = (   0.4100000   0.2050000   0.2050000), wk =   0.0086580
        k(  191) = (   0.4000000   0.2000000   0.2000000), wk =   0.0086580
        k(  192) = (   0.3900000   0.1950000   0.1950000), wk =   0.0086580
        k(  193) = (   0.3800000   0.1900000   0.1900000), wk =   0.0086580
        k(  194) = (   0.3700000   0.1850000   0.1850000), wk =   0.0086580
        k(  195) = (   0.3600000   0.1800000   0.1800000), wk =   0.0086580
        k(  196) = (   0.3500000   0.1750000   0.1750000), wk =   0.0086580
        k(  197) = (   0.3400000   0.1700000   0.1700000), wk =   0.0086580
        k(  198) = (   0.3300000   0.1650000   0.1650000), wk =   0.0086580
        k(  199) = (   0.3200000   0.1600000   0.1600000), wk =   0.0086580
        k(  200) = (   0.3100000   0.1550000   0.1550000), wk =   0.0086580
        k(  201) = (   0.3000000   0.1500000   0.1500000), wk =   0.0086580
        k(  202) = (   0.2900000   0.1450000   0.1450000), wk =   0.0086580
        k(  203) = (   0.2800000   0.1400000   0.1400000), wk =   0.0086580
        k(  204) = (   0.2700000   0.1350000   0.1350000), wk =   0.0086580
        k(  205) = (   0.2600000   0.1300000   0.1300000), wk =   0.0086580
        k(  206) = (   0.2500000   0.1250000   0.1250000), wk =   0.0086580
        k(  207) = (   0.2400000   0.1200000   0.1200000), wk =   0.0086580
        k(  208) = (   0.2300000   0.1150000   0.1150000), wk =   0.0086580
        k(  209) = (   0.2200000   0.1100000   0.1100000), wk =   0.0086580
        k(  210) = (   0.2100000   0.1050000   0.1050000), wk =   0.0086580
        k(  211) = (   0.2000000   0.1000000   0.1000000), wk =   0.0086580
        k(  212) = (   0.1900000   0.0950000   0.0950000), wk =   0.0086580
        k(  213) = (   0.1800000   0.0900000   0.0900000), wk =   0.0086580
        k(  214) = (   0.1700000   0.0850000   0.0850000), wk =   0.0086580
        k(  215) = (   0.1600000   0.0800000   0.0800000), wk =   0.0086580
        k(  216) = (   0.1500000   0.0750000   0.0750000), wk =   0.0086580
        k(  217) = (   0.1400000   0.0700000   0.0700000), wk =   0.0086580
        k(  218) = (   0.1300000   0.0650000   0.0650000), wk =   0.0086580
        k(  219) = (   0.1200000   0.0600000   0.0600000), wk =   0.0086580
        k(  220) = (   0.1100000   0.0550000   0.0550000), wk =   0.0086580
        k(  221) = (   0.1000000   0.0500000   0.0500000), wk =   0.0086580
        k(  222) = (   0.0900000   0.0450000   0.0450000), wk =   0.0086580
        k(  223) = (   0.0800000   0.0400000   0.0400000), wk =   0.0086580
        k(  224) = (   0.0700000   0.0350000   0.0350000), wk =   0.0086580
        k(  225) = (   0.0600000   0.0300000   0.0300000), wk =   0.0086580
        k(  226) = (   0.0500000   0.0250000   0.0250000), wk =   0.0086580
        k(  227) = (   0.0400000   0.0200000   0.0200000), wk =   0.0086580
        k(  228) = (   0.0300000   0.0150000   0.0150000), wk =   0.0086580
        k(  229) = (   0.0200000   0.0100000   0.0100000), wk =   0.0086580
        k(  230) = (   0.0100000   0.0050000   0.0050000), wk =   0.0086580
        k(  231) = (   0.0000000   0.0000000   0.0000000), wk =   0.0086580

     Dense  grid:     9257 G-vectors     FFT dimensions: (  32,  32,  32)

     Dynamical RAM for                 wfc:       0.21 MB

     Dynamical RAM for     wfc (w. buffer):       0.21 MB

     Dynamical RAM for           str. fact:       0.14 MB

     Dynamical RAM for           local pot:       0.00 MB

     Dynamical RAM for          nlocal pot:       0.28 MB

     Dynamical RAM for                qrad:       0.29 MB

     Dynamical RAM for          rho,v,vnew:       1.17 MB

     Dynamical RAM for           G-vectors:       0.60 MB

     Dynamical RAM for          h,s,v(r/c):       0.03 MB

     Dynamical RAM for          <psi|beta>:       0.00 MB

     Dynamical RAM for                 psi:       0.42 MB

     Dynamical RAM for                hpsi:       0.42 MB

     Dynamical RAM for                spsi:       0.42 MB

     Dynamical RAM for      wfcinit/wfcrot:       0.43 MB

     Dynamical RAM for           addusdens:       6.36 MB

     Estimated static dynamical RAM per process >       4.23 MB

     Estimated max dynamical RAM per process >      10.59 MB

     Atomic positions and unit cell read from directory:
     ./silicon.save/


     Check: negative core charge=   -0.000003

     The potential is recalculated from file :
     ./silicon.save/charge-density

     Starting wfcs are    8 randomized atomic wfcs +    4 random wfcs

     Band Structure Calculation
     Davidson diagonalization with overlap

     Computing kpt #:     1  of   231
     total cpu time spent up to now is        0.5 secs

     Computing kpt #:     2  of   231
     total cpu time spent up to now is        0.7 secs

     Computing kpt #:     3  of   231
     total cpu time spent up to now is        0.9 secs

     Computing kpt #:     4  of   231
     total cpu time spent up to now is        1.2 secs

     Computing kpt #:     5  of   231
     total cpu time spent up to now is        1.4 secs

     Computing kpt #:     6  of   231
     total cpu time spent up to now is        1.6 secs

     Computing kpt #:     7  of   231
     total cpu time spent up to now is        1.9 secs

     Computing kpt #:     8  of   231
     total cpu time spent up to now is        2.1 secs

     Computing kpt #:     9  of   231
     total cpu time spent up to now is        2.3 secs

     Computing kpt #:    10  of   231
     total cpu time spent up to now is        2.5 secs

     Computing kpt #:    11  of   231
     total cpu time spent up to now is        2.7 secs

     Computing kpt #:    12  of   231
     total cpu time spent up to now is        2.9 secs

     Computing kpt #:    13  of   231
     total cpu time spent up to now is        3.2 secs

     Computing kpt #:    14  of   231
     total cpu time spent up to now is        3.4 secs

     Computing kpt #:    15  of   231
     total cpu time spent up to now is        3.6 secs

     Computing kpt #:    16  of   231
     total cpu time spent up to now is        3.8 secs

     Computing kpt #:    17  of   231
     total cpu time spent up to now is        4.0 secs

     Computing kpt #:    18  of   231
     total cpu time spent up to now is        4.2 secs

     Computing kpt #:    19  of   231
     total cpu time spent up to now is        4.4 secs

     Computing kpt #:    20  of   231
     total cpu time spent up to now is        4.6 secs

     Computing kpt #:    21  of   231
     total cpu time spent up to now is        4.8 secs

     Computing kpt #:    22  of   231
     total cpu time spent up to now is        5.0 secs

     Computing kpt #:    23  of   231
     total cpu time spent up to now is        5.3 secs

     Computing kpt #:    24  of   231
     total cpu time spent up to now is        5.5 secs

     Computing kpt #:    25  of   231
     total cpu time spent up to now is        5.7 secs

     Computing kpt #:    26  of   231
     total cpu time spent up to now is        5.9 secs

     Computing kpt #:    27  of   231
     total cpu time spent up to now is        6.1 secs

     Computing kpt #:    28  of   231
     total cpu time spent up to now is        6.3 secs

     Computing kpt #:    29  of   231
     total cpu time spent up to now is        6.4 secs

     Computing kpt #:    30  of   231
     total cpu time spent up to now is        6.6 secs

     Computing kpt #:    31  of   231
     total cpu time spent up to now is        6.8 secs

     Computing kpt #:    32  of   231
     total cpu time spent up to now is        7.0 secs

     Computing kpt #:    33  of   231
     total cpu time spent up to now is        7.3 secs

     Computing kpt #:    34  of   231
     total cpu time spent up to now is        7.5 secs

     Computing kpt #:    35  of   231
     total cpu time spent up to now is        7.6 secs

     Computing kpt #:    36  of   231
     total cpu time spent up to now is        7.8 secs

     Computing kpt #:    37  of   231
     total cpu time spent up to now is        8.0 secs

     Computing kpt #:    38  of   231
     total cpu time spent up to now is        8.2 secs

     Computing kpt #:    39  of   231
     total cpu time spent up to now is        8.4 secs

     Computing kpt #:    40  of   231
     total cpu time spent up to now is        8.6 secs

     Computing kpt #:    41  of   231
     total cpu time spent up to now is        8.8 secs

     Computing kpt #:    42  of   231
     total cpu time spent up to now is        9.0 secs

     Computing kpt #:    43  of   231
     total cpu time spent up to now is        9.1 secs

     Computing kpt #:    44  of   231
     total cpu time spent up to now is        9.3 secs

     Computing kpt #:    45  of   231
     total cpu time spent up to now is        9.5 secs

     Computing kpt #:    46  of   231
     total cpu time spent up to now is        9.7 secs

     Computing kpt #:    47  of   231
     total cpu time spent up to now is        9.8 secs

     Computing kpt #:    48  of   231
     total cpu time spent up to now is       10.0 secs

     Computing kpt #:    49  of   231
     total cpu time spent up to now is       10.2 secs

     Computing kpt #:    50  of   231
     total cpu time spent up to now is       10.4 secs

     Computing kpt #:    51  of   231
     total cpu time spent up to now is       10.6 secs

     Computing kpt #:    52  of   231
     total cpu time spent up to now is       10.7 secs

     Computing kpt #:    53  of   231
     total cpu time spent up to now is       10.9 secs

     Computing kpt #:    54  of   231
     total cpu time spent up to now is       11.1 secs

     Computing kpt #:    55  of   231
     total cpu time spent up to now is       11.3 secs

     Computing kpt #:    56  of   231
     total cpu time spent up to now is       11.5 secs

     Computing kpt #:    57  of   231
     total cpu time spent up to now is       11.7 secs

     Computing kpt #:    58  of   231
     total cpu time spent up to now is       11.9 secs

     Computing kpt #:    59  of   231
     total cpu time spent up to now is       12.1 secs

     Computing kpt #:    60  of   231
     total cpu time spent up to now is       12.2 secs

     Computing kpt #:    61  of   231
     total cpu time spent up to now is       12.4 secs

     Computing kpt #:    62  of   231
     total cpu time spent up to now is       12.6 secs

     Computing kpt #:    63  of   231
     total cpu time spent up to now is       12.8 secs

     Computing kpt #:    64  of   231
     total cpu time spent up to now is       13.0 secs

     Computing kpt #:    65  of   231
     total cpu time spent up to now is       13.2 secs

     Computing kpt #:    66  of   231
     total cpu time spent up to now is       13.4 secs

     Computing kpt #:    67  of   231
     total cpu time spent up to now is       13.6 secs

     Computing kpt #:    68  of   231
     total cpu time spent up to now is       13.8 secs

     Computing kpt #:    69  of   231
     total cpu time spent up to now is       14.0 secs

     Computing kpt #:    70  of   231
     total cpu time spent up to now is       14.2 secs

     Computing kpt #:    71  of   231
     total cpu time spent up to now is       14.4 secs

     Computing kpt #:    72  of   231
     total cpu time spent up to now is       14.5 secs

     Computing kpt #:    73  of   231
     total cpu time spent up to now is       14.7 secs

     Computing kpt #:    74  of   231
     total cpu time spent up to now is       14.9 secs

     Computing kpt #:    75  of   231
     total cpu time spent up to now is       15.1 secs

     Computing kpt #:    76  of   231
     total cpu time spent up to now is       15.3 secs

     Computing kpt #:    77  of   231
     total cpu time spent up to now is       15.5 secs

     Computing kpt #:    78  of   231
     total cpu time spent up to now is       15.7 secs

     Computing kpt #:    79  of   231
     total cpu time spent up to now is       15.8 secs

     Computing kpt #:    80  of   231
     total cpu time spent up to now is       16.0 secs

     Computing kpt #:    81  of   231
     total cpu time spent up to now is       16.2 secs

     Computing kpt #:    82  of   231
     total cpu time spent up to now is       16.4 secs

     Computing kpt #:    83  of   231
     total cpu time spent up to now is       16.6 secs

     Computing kpt #:    84  of   231
     total cpu time spent up to now is       16.8 secs

     Computing kpt #:    85  of   231
     total cpu time spent up to now is       17.0 secs

     Computing kpt #:    86  of   231
     total cpu time spent up to now is       17.2 secs

     Computing kpt #:    87  of   231
     total cpu time spent up to now is       17.3 secs

     Computing kpt #:    88  of   231
     total cpu time spent up to now is       17.5 secs

     Computing kpt #:    89  of   231
     total cpu time spent up to now is       17.7 secs

     Computing kpt #:    90  of   231
     total cpu time spent up to now is       18.0 secs

     Computing kpt #:    91  of   231
     total cpu time spent up to now is       18.2 secs

     Computing kpt #:    92  of   231
     total cpu time spent up to now is       18.4 secs

     Computing kpt #:    93  of   231
     total cpu time spent up to now is       18.6 secs

     Computing kpt #:    94  of   231
     total cpu time spent up to now is       18.8 secs

     Computing kpt #:    95  of   231
     total cpu time spent up to now is       19.0 secs

     Computing kpt #:    96  of   231
     total cpu time spent up to now is       19.2 secs

     Computing kpt #:    97  of   231
     total cpu time spent up to now is       19.4 secs

     Computing kpt #:    98  of   231
     total cpu time spent up to now is       19.6 secs

     Computing kpt #:    99  of   231
     total cpu time spent up to now is       19.9 secs

     Computing kpt #:   100  of   231
     total cpu time spent up to now is       20.1 secs

     Computing kpt #:   101  of   231
     total cpu time spent up to now is       20.3 secs

     Computing kpt #:   102  of   231
     total cpu time spent up to now is       20.5 secs

     Computing kpt #:   103  of   231
     total cpu time spent up to now is       20.7 secs

     Computing kpt #:   104  of   231
     total cpu time spent up to now is       21.0 secs

     Computing kpt #:   105  of   231
     total cpu time spent up to now is       21.2 secs

     Computing kpt #:   106  of   231
     total cpu time spent up to now is       21.4 secs

     Computing kpt #:   107  of   231
     total cpu time spent up to now is       21.7 secs

     Computing kpt #:   108  of   231
     total cpu time spent up to now is       21.9 secs

     Computing kpt #:   109  of   231
     total cpu time spent up to now is       22.1 secs

     Computing kpt #:   110  of   231
     total cpu time spent up to now is       22.4 secs

     Computing kpt #:   111  of   231
     total cpu time spent up to now is       22.6 secs

     Computing kpt #:   112  of   231
     total cpu time spent up to now is       22.9 secs

     Computing kpt #:   113  of   231
     total cpu time spent up to now is       23.1 secs

     Computing kpt #:   114  of   231
     total cpu time spent up to now is       23.4 secs

     Computing kpt #:   115  of   231
     total cpu time spent up to now is       23.6 secs

     Computing kpt #:   116  of   231
     total cpu time spent up to now is       23.9 secs

     Computing kpt #:   117  of   231
     total cpu time spent up to now is       24.1 secs

     Computing kpt #:   118  of   231
     total cpu time spent up to now is       24.3 secs

     Computing kpt #:   119  of   231
     total cpu time spent up to now is       24.6 secs

     Computing kpt #:   120  of   231
     total cpu time spent up to now is       24.9 secs

     Computing kpt #:   121  of   231
     total cpu time spent up to now is       25.1 secs

     Computing kpt #:   122  of   231
     total cpu time spent up to now is       25.4 secs

     Computing kpt #:   123  of   231
     total cpu time spent up to now is       25.7 secs

     Computing kpt #:   124  of   231
     total cpu time spent up to now is       25.9 secs

     Computing kpt #:   125  of   231
     total cpu time spent up to now is       26.2 secs

     Computing kpt #:   126  of   231
     total cpu time spent up to now is       26.5 secs

     Computing kpt #:   127  of   231
     total cpu time spent up to now is       26.8 secs

     Computing kpt #:   128  of   231
     total cpu time spent up to now is       27.1 secs

     Computing kpt #:   129  of   231
     total cpu time spent up to now is       27.4 secs

     Computing kpt #:   130  of   231
     total cpu time spent up to now is       27.7 secs

     Computing kpt #:   131  of   231
     total cpu time spent up to now is       28.0 secs

     Computing kpt #:   132  of   231
     total cpu time spent up to now is       28.3 secs

     Computing kpt #:   133  of   231
     total cpu time spent up to now is       28.6 secs

     Computing kpt #:   134  of   231
     total cpu time spent up to now is       28.8 secs

     Computing kpt #:   135  of   231
     total cpu time spent up to now is       29.1 secs

     Computing kpt #:   136  of   231
     total cpu time spent up to now is       29.4 secs

     Computing kpt #:   137  of   231
     total cpu time spent up to now is       29.7 secs

     Computing kpt #:   138  of   231
     total cpu time spent up to now is       30.0 secs

     Computing kpt #:   139  of   231
     total cpu time spent up to now is       30.3 secs

     Computing kpt #:   140  of   231
     total cpu time spent up to now is       30.5 secs

     Computing kpt #:   141  of   231
     c_bands:  1 eigenvalues not converged
     total cpu time spent up to now is       30.9 secs

     Computing kpt #:   142  of   231
     total cpu time spent up to now is       31.2 secs

     Computing kpt #:   143  of   231
     total cpu time spent up to now is       31.5 secs

     Computing kpt #:   144  of   231
     total cpu time spent up to now is       31.9 secs

     Computing kpt #:   145  of   231
     total cpu time spent up to now is       32.2 secs

     Computing kpt #:   146  of   231
     total cpu time spent up to now is       32.5 secs

     Computing kpt #:   147  of   231
     total cpu time spent up to now is       32.8 secs

     Computing kpt #:   148  of   231
     total cpu time spent up to now is       33.1 secs

     Computing kpt #:   149  of   231
     total cpu time spent up to now is       33.4 secs

     Computing kpt #:   150  of   231
     total cpu time spent up to now is       33.6 secs

     Computing kpt #:   151  of   231
     total cpu time spent up to now is       33.9 secs

     Computing kpt #:   152  of   231
     total cpu time spent up to now is       34.2 secs

     Computing kpt #:   153  of   231
     total cpu time spent up to now is       34.4 secs

     Computing kpt #:   154  of   231
     total cpu time spent up to now is       34.7 secs

     Computing kpt #:   155  of   231
     total cpu time spent up to now is       34.9 secs

     Computing kpt #:   156  of   231
     total cpu time spent up to now is       35.2 secs

     Computing kpt #:   157  of   231
     total cpu time spent up to now is       35.4 secs

     Computing kpt #:   158  of   231
     total cpu time spent up to now is       35.7 secs

     Computing kpt #:   159  of   231
     total cpu time spent up to now is       35.9 secs

     Computing kpt #:   160  of   231
     c_bands:  1 eigenvalues not converged
     total cpu time spent up to now is       36.3 secs

     Computing kpt #:   161  of   231
     total cpu time spent up to now is       36.5 secs

     Computing kpt #:   162  of   231
     total cpu time spent up to now is       36.8 secs

     Computing kpt #:   163  of   231
     total cpu time spent up to now is       37.0 secs

     Computing kpt #:   164  of   231
     total cpu time spent up to now is       37.2 secs

     Computing kpt #:   165  of   231
[...]
    16.9928  17.0198  18.7736  18.7769

          k =-1.0000 0.0400 0.0400 (  1156 PWs)   bands (ev):

    -1.6656  -1.6449   3.1985   3.3069   6.7805   6.9105  16.0827  16.1491
    16.9058  16.9510  18.8413  18.8443

          k =-1.0000 0.0500 0.0500 (  1156 PWs)   bands (ev):

    -1.6688  -1.6364   3.1476   3.3132   6.7879   6.9874  16.0056  16.1039
    16.8033  16.8695  18.9239  18.9240

          k =-1.0000 0.0600 0.0600 (  1152 PWs)   bands (ev):

    -1.6729  -1.6259   3.0884   3.3210   6.7969   7.0785  15.9171  16.0505
    16.6893  16.7781  19.0131  19.0190

          k =-1.0000 0.0700 0.0700 (  1144 PWs)   bands (ev):

    -1.6779  -1.6136   3.0226   3.3302   6.8075   7.1822  15.8194  15.9897
    16.5669  16.6794  19.1092  19.1245

          k =-1.0000 0.0800 0.0800 (  1144 PWs)   bands (ev):

    -1.6840  -1.5994   2.9513   3.3408   6.8198   7.2974  15.7142  15.9224
    16.4383  16.5750  19.2105  19.2385

          k =-1.0000 0.0900 0.0900 (  1146 PWs)   bands (ev):

    -1.6911  -1.5834   2.8760   3.3527   6.8337   7.4228  15.6032  15.8494
    16.3053  16.4665  19.3156  19.3594

          k =-1.0000 0.1000 0.1000 (  1146 PWs)   bands (ev):

    -1.6995  -1.5654   2.7978   3.3661   6.8492   7.5573  15.4875  15.7714
    16.1693  16.3549  19.4232  19.4860

          k =-1.0000 0.1100 0.1100 (  1142 PWs)   bands (ev):

    -1.7092  -1.5455   2.7178   3.3808   6.8663   7.6999  15.3682  15.6891
    16.0312  16.2411  19.5327  19.6229

          k =-1.0000 0.1200 0.1200 (  1146 PWs)   bands (ev):

    -1.7204  -1.5238   2.6370   3.3970   6.8850   7.8498  15.2461  15.6032
    15.8919  16.1257  19.6433  19.7036

          k =-1.0000 0.1300 0.1300 (  1150 PWs)   bands (ev):

    -1.7332  -1.5001   2.5563   3.4144   6.9053   8.0063  15.1220  15.5143
    15.7518  16.0093  19.7545  19.7867

          k =-1.0000 0.1400 0.1400 (  1150 PWs)   bands (ev):

    -1.7478  -1.4746   2.4764   3.4333   6.9272   8.1686  14.9963  15.4227
    15.6115  15.8923  19.8660  19.8718

          k =-1.0000 0.1500 0.1500 (  1154 PWs)   bands (ev):

    -1.7643  -1.4472   2.3981   3.4534   6.9506   8.3362  14.8696  15.3289
    15.4713  15.7750  19.9585  19.9773

          k =-1.0000 0.1600 0.1600 (  1154 PWs)   bands (ev):

    -1.7830  -1.4179   2.3219   3.4750   6.9756   8.5087  14.7422  15.2334
    15.3315  15.6577  20.0461  20.0883

          k =-1.0000 0.1700 0.1700 (  1152 PWs)   bands (ev):

    -1.8039  -1.3867   2.2484   3.4978   7.0022   8.6855  14.6144  15.1365
    15.1924  15.5407  20.1343  20.1988

          k =-1.0000 0.1800 0.1800 (  1152 PWs)   bands (ev):

    -1.8271  -1.3537   2.1781   3.5219   7.0303   8.8664  14.4864  15.0385
    15.0541  15.4241  20.2226  20.3085

          k =-1.0000 0.1900 0.1900 (  1152 PWs)   bands (ev):

    -1.8530  -1.3188   2.1115   3.5474   7.0599   9.0509  14.3586  14.9169
    14.9395  15.3081  20.3104  20.4175

          k =-1.0000 0.2000 0.2000 (  1144 PWs)   bands (ev):

    -1.8815  -1.2820   2.0490   3.5741   7.0910   9.2388  14.2310  14.7808
    14.8400  15.1930  20.3972  20.5255

          k =-1.0000 0.2100 0.2100 (  1144 PWs)   bands (ev):

    -1.9128  -1.2433   1.9908   3.6020   7.1235   9.4297  14.1039  14.6460
    14.7400  15.0788  20.4821  20.6325

          k =-1.0000 0.2200 0.2200 (  1144 PWs)   bands (ev):

    -1.9471  -1.2028   1.9373   3.6312   7.1576   9.6234  13.9773  14.5127
    14.6399  14.9656  20.5641  20.7384

          k =-1.0000 0.2300 0.2300 (  1144 PWs)   bands (ev):

    -1.9843  -1.1604   1.8887   3.6617   7.1931   9.8197  13.8515  14.3809
    14.5397  14.8536  20.6416  20.8433

          k =-1.0000 0.2400 0.2400 (  1144 PWs)   bands (ev):

    -2.0245  -1.1161   1.8452   3.6933   7.2300  10.0182  13.7264  14.2509
    14.4396  14.7428  20.7123  20.9471

          k =-1.0000 0.2500 0.2500 (  1144 PWs)   bands (ev):

    -2.0677  -1.0700   1.8069   3.7261   7.2683  10.2188  13.6022  14.1228
    14.3397  14.6335  20.7723  21.0497

          k =-0.7500 0.0000 0.7500 (  1144 PWs)   bands (ev):

    -2.0677  -1.0700   1.8069   3.7261   7.2683  10.2188  13.6022  14.1228
    14.3397  14.6335  20.7723  21.0497

          k =-0.7400 0.0000 0.7400 (  1144 PWs)   bands (ev):

    -2.1139  -1.0220   1.7740   3.7601   7.3080  10.4210  13.4790  13.9968
    14.2403  14.5255  20.8161  21.1513

          k =-0.7300 0.0000 0.7300 (  1146 PWs)   bands (ev):

    -2.1631  -0.9721   1.7464   3.7952   7.3490  10.6245  13.3569  13.8732
    14.1414  14.4191  20.8360  21.2518

          k =-0.7200 0.0000 0.7200 (  1142 PWs)   bands (ev):

    -2.2153  -0.9204   1.7243   3.8315   7.3913  10.8289  13.2358  13.7523
    14.0431  14.3143  20.8253  21.3513

          k =-0.7100 0.0000 0.7100 (  1142 PWs)   bands (ev):

    -2.2701  -0.8669   1.7075   3.8688   7.4349  11.0335  13.1159  13.6346
    13.9456  14.2112  20.7830  21.4513

          k =-0.7000 0.0000 0.7000 (  1142 PWs)   bands (ev):

    -2.3277  -0.8115   1.6960   3.9071   7.4797  11.2375  12.9972  13.5210
    13.8489  14.1099  20.7148  21.3329

          k =-0.6900 0.0000 0.6900 (  1141 PWs)   bands (ev):

    -2.3878  -0.7542   1.6898   3.9465   7.5257  11.4394  12.8797  13.4126
    13.7532  14.0104  20.6288  21.2147

          k =-0.6800 0.0000 0.6800 (  1141 PWs)   bands (ev):

    -2.4502  -0.6952   1.6887   3.9869   7.5729  11.6372  12.7635  13.3115
    13.6585  13.9128  20.5319  21.0974

          k =-0.6700 0.0000 0.6700 (  1141 PWs)   bands (ev):

    -2.5148  -0.6343   1.6925   4.0283   7.6212  11.8270  12.6487  13.2215
    13.5650  13.8171  20.4285  20.9813

          k =-0.6600 0.0000 0.6600 (  1141 PWs)   bands (ev):

    -2.5814  -0.5715   1.7012   4.0705   7.6706  12.0016  12.5352  13.1496
    13.4727  13.7235  20.3215  20.8666

          k =-0.6500 0.0000 0.6500 (  1141 PWs)   bands (ev):

    -2.6498  -0.5070   1.7146   4.1137   7.7210  12.1481  12.4231  13.1085
    13.3817  13.6320  20.2125  20.7537

          k =-0.6400 0.0000 0.6400 (  1141 PWs)   bands (ev):

    -2.7198  -0.4406   1.7324   4.1576   7.7723  12.2472  12.3124  13.1174
    13.2921  13.5426  20.1027  20.6427

          k =-0.6300 0.0000 0.6300 (  1141 PWs)   bands (ev):

    -2.7911  -0.3724   1.7546   4.2024   7.8245  12.2032  12.2844  13.1907
    13.2039  13.4555  19.9929  20.5338

          k =-0.6200 0.0000 0.6200 (  1145 PWs)   bands (ev):

    -2.8637  -0.3023   1.7810   4.2480   7.8775  12.0954  12.2664  13.1174
    13.3213  13.3707  19.8835  20.4273

          k =-0.6100 0.0000 0.6100 (  1145 PWs)   bands (ev):

    -2.9373  -0.2305   1.8114   4.2942   7.9313  11.9891  12.2130  13.0325
    13.2882  13.4893  19.7747  20.3234

          k =-0.6000 0.0000 0.6000 (  1145 PWs)   bands (ev):

    -3.0117  -0.1569   1.8455   4.3411   7.9857  11.8844  12.1402  12.9494
    13.2081  13.6785  19.6670  20.2223

          k =-0.5900 0.0000 0.5900 (  1145 PWs)   bands (ev):

    -3.0868  -0.0815   1.8834   4.3886   8.0407  11.7811  12.0570  12.8682
    13.1306  13.8795  19.5603  20.1243

          k =-0.5800 0.0000 0.5800 (  1151 PWs)   bands (ev):

    -3.1624  -0.0043   1.9248   4.4367   8.0961  11.6794  11.9684  12.7888
    13.0555  14.0870  19.4549  20.0297

          k =-0.5700 0.0000 0.5700 (  1151 PWs)   bands (ev):

    -3.2383   0.0747   1.9695   4.4853   8.1520  11.5793  11.8769  12.7116
    12.9831  14.2979  19.3508  19.9390

          k =-0.5600 0.0000 0.5600 (  1147 PWs)   bands (ev):

    -3.3144   0.1555   2.0174   4.5343   8.2081  11.4807  11.7842  12.6365
    12.9134  14.5102  19.2480  19.8525

          k =-0.5500 0.0000 0.5500 (  1147 PWs)   bands (ev):

    -3.3905   0.2380   2.0684   4.5837   8.2643  11.3838  11.6910  12.5636
    12.8465  14.7224  19.1465  19.7709

          k =-0.5400 0.0000 0.5400 (  1147 PWs)   bands (ev):

    -3.4665   0.3223   2.1224   4.6334   8.3205  11.2884  11.5980  12.4931
    12.7823  14.9330  19.0463  19.6948

          k =-0.5300 0.0000 0.5300 (  1147 PWs)   bands (ev):

    -3.5424   0.4083   2.1792   4.6834   8.3766  11.1947  11.5056  12.4251
    12.7211  15.1407  18.9471  19.6251

          k =-0.5200 0.0000 0.5200 (  1155 PWs)   bands (ev):

    -3.6179   0.4961   2.2387   4.7335   8.4323  11.1025  11.4141  12.3597
    12.6629  15.3442  18.8487  19.5627

          k =-0.5100 0.0000 0.5100 (  1159 PWs)   bands (ev):

    -3.6930   0.5857   2.3007   4.7837   8.4876  11.0121  11.3235  12.2971
    12.6077  15.5418  18.7505  19.5090

          k =-0.5000 0.0000 0.5000 (  1159 PWs)   bands (ev):

    -3.7676   0.6769   2.3653   4.8340   8.5422  10.9232  11.2342  12.2373
    12.5556  15.7318  18.6515  19.3251

          k =-0.4900 0.0000 0.4900 (  1147 PWs)   bands (ev):

    -3.8415   0.7699   2.4322   4.8843   8.5960  10.8360  11.1461  12.1806
    12.5067  15.9120  18.5497  19.0980

          k =-0.4800 0.0000 0.4800 (  1147 PWs)   bands (ev):

    -3.9148   0.8646   2.5014   4.9344   8.6487  10.7505  11.0593  12.1270
    12.4610  16.0801  18.4410  18.8810

          k =-0.4700 0.0000 0.4700 (  1147 PWs)   bands (ev):

    -3.9872   0.9610   2.5728   4.9843   8.7002  10.6667  10.9738  12.0767
    12.4188  16.2336  18.3170  18.6827

          k =-0.4600 0.0000 0.4600 (  1147 PWs)   bands (ev):

    -4.0589   1.0590   2.6463   5.0340   8.7502  10.5845  10.8899  12.0298
    12.3799  16.3699  18.1663  18.5147

          k =-0.4500 0.0000 0.4500 (  1151 PWs)   bands (ev):

    -4.1296   1.1588   2.7218   5.0833   8.7984  10.5040  10.8073  11.9865
    12.3445  16.4867  17.9848  18.3813

          k =-0.4400 0.0000 0.4400 (  1151 PWs)   bands (ev):

    -4.1993   1.2602   2.7992   5.1321   8.8447  10.4252  10.7263  11.9469
    12.3127  16.5821  17.7818  18.2733

          k =-0.4300 0.0000 0.4300 (  1151 PWs)   bands (ev):

    -4.2680   1.3632   2.8784   5.1805   8.8887  10.3481  10.6467  11.9110
    12.2845  16.6553  17.5682  18.1803

          k =-0.4200 0.0000 0.4200 (  1155 PWs)   bands (ev):

    -4.3355   1.4679   2.9593   5.2282   8.9304  10.2728  10.5687  11.8791
    12.2600  16.7063  17.3501  18.0960

          k =-0.4100 0.0000 0.4100 (  1155 PWs)   bands (ev):

    -4.4020   1.5742   3.0419   5.2752   8.9693  10.1991  10.4922  11.8510
    12.2393  16.7362  17.1307  18.0177

          k =-0.4000 0.0000 0.4000 (  1151 PWs)   bands (ev):

    -4.4672   1.6821   3.1261   5.3215   9.0055  10.1272  10.4172  11.8269
    12.2224  16.7467  16.9117  17.9439

          k =-0.3900 0.0000 0.3900 (  1155 PWs)   bands (ev):

    -4.5313   1.7915   3.2118   5.3669   9.0386  10.0569  10.3438  11.8066
    12.2095  16.6941  16.7401  17.8737

          k =-0.3800 0.0000 0.3800 (  1155 PWs)   bands (ev):

    -4.5940   1.9026   3.2989   5.4114   9.0685   9.9885  10.2719  11.7901
    12.2004  16.4787  16.7184  17.8069

          k =-0.3700 0.0000 0.3700 (  1155 PWs)   bands (ev):

    -4.6555   2.0151   3.3873   5.4549   9.0951   9.9217  10.2015  11.7771
    12.1954  16.2659  16.6840  17.7432

          k =-0.3600 0.0000 0.3600 (  1157 PWs)   bands (ev):

    -4.7156   2.1292   3.4769   5.4974   9.1183   9.8567  10.1327  11.7673
    12.1944  16.0563  16.6385  17.6824

          k =-0.3500 0.0000 0.3500 (  1153 PWs)   bands (ev):

    -4.7743   2.2448   3.5676   5.5387   9.1381   9.7934  10.0654  11.7603
    12.1975  15.8504  16.5837  17.6245

          k =-0.3400 0.0000 0.3400 (  1147 PWs)   bands (ev):

    -4.8316   2.3619   3.6595   5.5788   9.1545   9.7319   9.9996  11.7557
    12.2047  15.6488  16.5208  17.5694

          k =-0.3300 0.0000 0.3300 (  1147 PWs)   bands (ev):

    -4.8875   2.4803   3.7522   5.6177   9.1677   9.6721   9.9353  11.7527
    12.2161  15.4520  16.4510  17.5172

          k =-0.3200 0.0000 0.3200 (  1149 PWs)   bands (ev):

    -4.9419   2.6002   3.8458   5.6552   9.1776   9.6141   9.8725  11.7504
    12.2315  15.2607  16.3750  17.4679

          k =-0.3100 0.0000 0.3100 (  1157 PWs)   bands (ev):

    -4.9949   2.7214   3.9402   5.6914   9.1844   9.5578   9.8113  11.7481
    12.2511  15.0758  16.2937  17.4215

          k =-0.3000 0.0000 0.3000 (  1157 PWs)   bands (ev):

    -5.0463   2.8440   4.0351   5.7263   9.1883   9.5033   9.7515  11.7443
    12.2748  14.8981  16.2076  17.3780

          k =-0.2900 0.0000 0.2900 (  1157 PWs)   bands (ev):

    -5.0962   2.9678   4.1306   5.7597   9.1895   9.4505   9.6932  11.7380
    12.3026  14.7287  16.1174  17.3374

          k =-0.2800 0.0000 0.2800 (  1157 PWs)   bands (ev):

    -5.1446   3.0929   4.2265   5.7917   9.1883   9.3995   9.6363  11.7275
    12.3344  14.5688  16.0234  17.2999

          k =-0.2700 0.0000 0.2700 (  1157 PWs)   bands (ev):

    -5.1914   3.2192   4.3226   5.8222   9.1847   9.3503   9.5809  11.7113
    12.3703  14.4198  15.9262  17.2655

          k =-0.2600 0.0000 0.2600 (  1159 PWs)   bands (ev):

    -5.2366   3.3465   4.4189   5.8513   9.1792   9.3029   9.5269  11.6877
    12.4100  14.2829  15.8262  17.2342

          k =-0.2500 0.0000 0.2500 (  1159 PWs)   bands (ev):

    -5.2803   3.4749   4.5151   5.8789   9.1718   9.2572   9.4744  11.6550
    12.4536  14.1595  15.7240  17.2060

          k =-0.2400 0.0000 0.2400 (  1159 PWs)   bands (ev):

    -5.3223   3.6043   4.6112   5.9050   9.1628   9.2133   9.4232  11.6117
    12.5009  14.0509  15.6199  17.1811

          k =-0.2300 0.0000 0.2300 (  1161 PWs)   bands (ev):

    -5.3627   3.7345   4.7068   5.9297   9.1524   9.1712   9.3735  11.5567
    12.5518  13.9577  15.5145  17.1595

          k =-0.2200 0.0000 0.2200 (  1161 PWs)   bands (ev):

    -5.4015   3.8655   4.8020   5.9530   9.1308   9.1408   9.3251  11.4894
    12.6062  13.8804  15.4083  17.1411

          k =-0.2100 0.0000 0.2100 (  1165 PWs)   bands (ev):

    -5.4386   3.9971   4.8964   5.9748   9.0922   9.1281   9.2781  11.4098
    12.6638  13.8187  15.3018  17.1261

          k =-0.2000 0.0000 0.2000 (  1165 PWs)   bands (ev):

    -5.4740   4.1293   4.9898   5.9952   9.0555   9.1145   9.2325  11.3185
    12.7246  13.7718  15.1955  17.1144

          k =-0.1900 0.0000 0.1900 (  1165 PWs)   bands (ev):

    -5.5078   4.2618   5.0821   6.0143   9.0205   9.1001   9.1883  11.2167
    12.7882  13.7383  15.0899  17.1060

          k =-0.1800 0.0000 0.1800 (  1165 PWs)   bands (ev):

    -5.5399   4.3945   5.1730   6.0321   8.9873   9.0849   9.1454  11.1059
    12.8544  13.7166  14.9857  17.1009

          k =-0.1700 0.0000 0.1700 (  1163 PWs)   bands (ev):

    -5.5703   4.5272   5.2621   6.0486   8.9558   9.0691   9.1039  10.9877
    12.9229  13.7050  14.8832  17.0990

          k =-0.1600 0.0000 0.1600 (  1169 PWs)   bands (ev):

    -5.5991   4.6596   5.3493   6.0639   8.9262   9.0527   9.0639  10.8641
    12.9935  13.7016  14.7831  17.1002

          k =-0.1500 0.0000 0.1500 (  1169 PWs)   bands (ev):

    -5.6261   4.7914   5.4342   6.0779   8.8984   9.0253   9.0356  10.7369
    13.0656  13.7048  14.6859  17.1043

          k =-0.1400 0.0000 0.1400 (  1169 PWs)   bands (ev):

    -5.6514   4.9222   5.5165   6.0908   8.8723   8.9882   9.0177  10.6076
    13.1390  13.7131  14.5920  17.1113

          k =-0.1300 0.0000 0.1300 (  1177 PWs)   bands (ev):

    -5.6750   5.0517   5.5958   6.1026   8.8480   8.9527   8.9989  10.4782
    13.2130  13.7250  14.5021  17.1208

          k =-0.1200 0.0000 0.1200 (  1177 PWs)   bands (ev):

    -5.6968   5.1793   5.6718   6.1133   8.8256   8.9188   8.9791  10.3502
    13.2872  13.7396  14.4165  17.1325

          k =-0.1100 0.0000 0.1100 (  1177 PWs)   bands (ev):

    -5.7169   5.3044   5.7441   6.1230   8.8049   8.8867   8.9581  10.2253
    13.3609  13.7556  14.3357  17.1462

          k =-0.1000 0.0000 0.1000 (  1179 PWs)   bands (ev):

    -5.7353   5.4262   5.8122   6.1317   8.7860   8.8565   8.9355  10.1052
    13.4334  13.7724  14.2603  17.1613

          k =-0.0900 0.0000 0.0900 (  1183 PWs)   bands (ev):

    -5.7520   5.5439   5.8758   6.1394   8.7689   8.8283   8.9110   9.9917
    13.5039  13.7893  14.1905  17.1774

          k =-0.0800 0.0000 0.0800 (  1179 PWs)   bands (ev):

    -5.7669   5.6564   5.9343   6.1462   8.7536   8.8023   8.8846   9.8866
    13.5715  13.8056  14.1270  17.1941

          k =-0.0700 0.0000 0.0700 (  1179 PWs)   bands (ev):

    -5.7801   5.7623   5.9873   6.1522   8.7402   8.7787   8.8561   9.7916
    13.6352  13.8210  14.0699  17.2107

          k =-0.0600 0.0000 0.0600 (  1179 PWs)   bands (ev):

    -5.7915   5.8601   6.0344   6.1572   8.7285   8.7576   8.8259   9.7081
    13.6937  13.8349  14.0197  17.2267

          k =-0.0500 0.0000 0.0500 (  1173 PWs)   bands (ev):

    -5.8012   5.9481   6.0751   6.1615   8.7186   8.7394   8.7948   9.6373
    13.7461  13.8472  13.9766  17.2415

          k =-0.0400 0.0000 0.0400 (  1161 PWs)   bands (ev):

    -5.8091   6.0243   6.1091   6.1649   8.7105   8.7241   8.7646   9.5798
    13.7911  13.8575  13.9410  17.2545

          k =-0.0300 0.0000 0.0300 (  1161 PWs)   bands (ev):

    -5.8152   6.0865   6.1359   6.1676   8.7042   8.7120   8.7373   9.5358
    13.8276  13.8657  13.9131  17.2652

          k =-0.0200 0.0000 0.0200 (  1153 PWs)   bands (ev):

    -5.8196   6.1328   6.1553   6.1695   8.6997   8.7032   8.7153   9.5049
    13.8545  13.8717  13.8930  17.2733

          k =-0.0100 0.0000 0.0100 (  1139 PWs)   bands (ev):

    -5.8223   6.1613   6.1671   6.1706   8.6970   8.6979   8.7010   9.4866
    13.8709  13.8753  13.8809  17.2782

          k = 0.0000 0.0000 0.0000 (  1139 PWs)   bands (ev):

    -5.8231   6.1710   6.1710   6.1710   8.6961   8.6961   8.6961   9.4805
    13.8765  13.8765  13.8769  17.2799

     Writing all to output data dir ./silicon.save/ :
     XML data file, pseudopotentials, collected wavefunctions

     init_run     :      0.14s CPU      0.15s WALL (       1 calls)
     electrons    :     49.47s CPU     50.04s WALL (       1 calls)

     Called by init_run:
     wfcinit      :      0.00s CPU      0.00s WALL (       1 calls)
     wfcinit:atom :      0.02s CPU      0.02s WALL (     231 calls)
     wfcinit:wfcr :      1.25s CPU      1.28s WALL (     231 calls)
     potinit      :      0.01s CPU      0.01s WALL (       1 calls)
     hinit0       :      0.10s CPU      0.10s WALL (       1 calls)

     Called by electrons:
     c_bands      :     49.47s CPU     50.04s WALL (       1 calls)
     v_of_rho     :      0.01s CPU      0.01s WALL (       1 calls)
     v_h          :      0.00s CPU      0.00s WALL (       1 calls)
     v_xc         :      0.01s CPU      0.01s WALL (       1 calls)
     newd         :      0.00s CPU      0.01s WALL (       1 calls)

     Called by c_bands:
     init_us_2    :      0.03s CPU      0.03s WALL (     231 calls)
     cegterg      :     48.07s CPU     48.58s WALL (     686 calls)

     Called by sum_band:

     Called by *egterg:
     cdiaghg      :      1.40s CPU      1.42s WALL (   11938 calls)
     cegterg:over :      3.97s CPU      4.01s WALL (   11707 calls)
     cegterg:upda :      2.13s CPU      2.15s WALL (   11707 calls)
     cegterg:last :      5.89s CPU      5.93s WALL (    6917 calls)
     h_psi        :     33.40s CPU     33.80s WALL (   12624 calls)
     s_psi        :      1.48s CPU      1.50s WALL (   12624 calls)
     g_psi        :      0.29s CPU      0.29s WALL (   11707 calls)

     Called by h_psi:
     h_psi:calbec :      1.65s CPU      1.67s WALL (   12624 calls)
     vloc_psi     :     30.14s CPU     30.51s WALL (   12624 calls)
     add_vuspsi   :      1.48s CPU      1.50s WALL (   12624 calls)

     General routines
     calbec       :      1.63s CPU      1.65s WALL (   12624 calls)
     fft          :      0.00s CPU      0.00s WALL (      12 calls)
     fftw         :     26.98s CPU     27.30s WALL (  170998 calls)
     davcio       :      0.03s CPU      0.04s WALL (     462 calls)


     PWSCF        :     49.67s CPU     50.33s WALL


   This run was terminated on:  23:11:59  25Dec2024            

=------------------------------------------------------------------------------=
   JOB DONE.
=------------------------------------------------------------------------------=
