
     Program PWSCF v.7.3.1 starts on 19Dec2024 at 18:56:33 

     This program is part of the open-source Quantum ESPRESSO suite
     for quantum simulation of materials; please cite
         "P. Giannozzi et al., J. Phys.:Condens. Matter 21 395502 (2009);
         "P. Giannozzi et al., J. Phys.:Condens. Matter 29 465901 (2017);
         "P. Giannozzi et al., J. Chem. Phys. 152 154105 (2020);
          URL http://www.quantum-espresso.org", 
     in publications or presentations arising from this work. More details at
     http://www.quantum-espresso.org/quote

     Serial version
     110314 MiB available memory on the printing compute node when the environment starts

     Waiting for input...
     Reading input from standard input

     Current dimensions of program PWSCF are:
     Max number of different atomic species (ntypx) = 10
     Max number of k-points (npk) =  40000
     Max angular momentum in pseudopotentials (lmaxx) =  4
     Message from routine input:
     WARNING: "startingwfc" set to atomic+random may spoil restart


     G-vector sticks info
     --------------------
     sticks:   dense  smooth     PW     G-vecs:    dense   smooth      PW
     Sum         583     583    169                 9257     9257    1471

     Using Slab Decomposition



     bravais-lattice index     =            2
     lattice parameter (alat)  =      10.2600  a.u.
     unit-cell volume          =     270.0114 (a.u.)^3
     number of atoms/cell      =            2
     number of atomic types    =            1
     number of electrons       =         8.00
     number of Kohn-Sham states=           12
     kinetic-energy cutoff     =      40.0000  Ry
     charge density cutoff     =     160.0000  Ry
     Exchange-correlation= PBESOL
                           (   1   4  10   8   0   0   0)

     celldm(1)=  10.260000  celldm(2)=   0.000000  celldm(3)=   0.000000
     celldm(4)=   0.000000  celldm(5)=   0.000000  celldm(6)=   0.000000

     crystal axes: (cart. coord. in units of alat)
               a(1) = (  -0.500000   0.000000   0.500000 )  
               a(2) = (   0.000000   0.500000   0.500000 )  
               a(3) = (  -0.500000   0.500000   0.000000 )  

     reciprocal axes: (cart. coord. in units 2 pi/alat)
               b(1) = ( -1.000000 -1.000000  1.000000 )  
               b(2) = (  1.000000  1.000000  1.000000 )  
               b(3) = ( -1.000000  1.000000 -1.000000 )  


     PseudoPot. # 1 for Si read from file:
     ./Si_pbesol.upf
     MD5 check sum: fe77d7a5829557c21112a27752452c0f
     Pseudo is Ultrasoft + core correction, Zval =  4.0
     Generated using "atomic" code by A. Dal Corso  v.5.0.2 svn rev. 9415
     Using radial grid of 1141 points,  4 beta functions with: 
                l(1) =   0
                l(2) =   0
                l(3) =   1
                l(4) =   1
     Q(r) pseudized with 0 coefficients 


     atomic species   valence    mass     pseudopotential
     Si                4.00    28.08550     Si( 1.00)

      6 Sym. Ops. (no inversion) found


                                    s                        frac. trans.

      isym =  1     identity                                     

 cryst.   s( 1) = (     1          0          0      )
                  (     0          1          0      )
                  (     0          0          1      )

 cart.    s( 1) = (  1.0000000  0.0000000  0.0000000 )
                  (  0.0000000  1.0000000  0.0000000 )
                  (  0.0000000  0.0000000  1.0000000 )


      isym =  2     120 deg rotation - cart. axis [-1,-1,-1]     

 cryst.   s( 2) = (    -1          0          1      )
                  (    -1          1          0      )
                  (    -1          0          0      )

 cart.    s( 2) = (  0.0000000  1.0000000  0.0000000 )
                  (  0.0000000  0.0000000  1.0000000 )
                  (  1.0000000  0.0000000  0.0000000 )


      isym =  3     120 deg rotation - cart. axis [1,1,1]        

 cryst.   s( 3) = (     0          0         -1      )
                  (     0          1         -1      )
                  (     1          0         -1      )

 cart.    s( 3) = (  0.0000000  0.0000000  1.0000000 )
                  (  1.0000000  0.0000000  0.0000000 )
                  (  0.0000000  1.0000000  0.0000000 )


      isym =  4     inv. 180 deg rotation - cart. axis [1,-1,0]  

 cryst.   s( 4) = (     1          0         -1      )
                  (     0          1         -1      )
                  (     0          0         -1      )

 cart.    s( 4) = (  0.0000000  1.0000000  0.0000000 )
                  (  1.0000000  0.0000000  0.0000000 )
                  (  0.0000000  0.0000000  1.0000000 )


      isym =  5     inv. 180 deg rotation - cart. axis [-1,0,1]  

 cryst.   s( 5) = (    -1          0          0      )
                  (    -1          1          0      )
                  (    -1          0          1      )

 cart.    s( 5) = (  0.0000000  0.0000000  1.0000000 )
                  (  0.0000000  1.0000000  0.0000000 )
                  (  1.0000000  0.0000000  0.0000000 )


      isym =  6     inv. 180 deg rotation - cart. axis [0,1,-1]  

 cryst.   s( 6) = (     0          0          1      )
                  (     0          1          0      )
                  (     1          0          0      )

 cart.    s( 6) = (  1.0000000  0.0000000  0.0000000 )
                  (  0.0000000  0.0000000  1.0000000 )
                  (  0.0000000  1.0000000  0.0000000 )


     point group C_3v (3m)  
     there are  3 classes
     the character table:

       E     2C3   3s_v 
A_1    1.00  1.00  1.00
A_2    1.00  1.00 -1.00
E      2.00 -1.00  0.00

     the symmetry operations in each class and the name of the first element:

     E        1
          identity                                               
     2C3      2    3
          120 deg rotation - cart. axis [-1,-1,-1]               
     3s_v     4    5    6
          inv. 180 deg rotation - cart. axis [1,-1,0]            

   Cartesian axes

     site n.     atom                  positions (alat units)
         1        Si     tau(   1) = (   0.0000000   0.0000000   0.0000000  )
         2        Si     tau(   2) = (   0.2506742   0.2506742   0.2506742  )

   Crystallographic axes

     site n.     atom                  positions (cryst. coord.)
         1        Si     tau(   1) = (  0.0000000  0.0000000  0.0000000  )
         2        Si     tau(   2) = ( -0.2506742  0.7520226 -0.2506742  )

     number of k points=    62
                       cart. coord. in units 2pi/alat
        k(    1) = (  -0.5000000   0.5000000   0.5000000), wk =   0.0322581
        k(    2) = (  -0.4666667   0.4666667   0.4666667), wk =   0.0322581
        k(    3) = (  -0.4333333   0.4333333   0.4333333), wk =   0.0322581
        k(    4) = (  -0.4000000   0.4000000   0.4000000), wk =   0.0322581
        k(    5) = (  -0.3666667   0.3666667   0.3666667), wk =   0.0322581
        k(    6) = (  -0.3333333   0.3333333   0.3333333), wk =   0.0322581
        k(    7) = (  -0.3000000   0.3000000   0.3000000), wk =   0.0322581
        k(    8) = (  -0.2666667   0.2666667   0.2666667), wk =   0.0322581
        k(    9) = (  -0.2333333   0.2333333   0.2333333), wk =   0.0322581
        k(   10) = (  -0.2000000   0.2000000   0.2000000), wk =   0.0322581
        k(   11) = (  -0.1666667   0.1666667   0.1666667), wk =   0.0322581
        k(   12) = (  -0.1333333   0.1333333   0.1333333), wk =   0.0322581
        k(   13) = (  -0.1000000   0.1000000   0.1000000), wk =   0.0322581
        k(   14) = (  -0.0666667   0.0666667   0.0666667), wk =   0.0322581
        k(   15) = (  -0.0333333   0.0333333   0.0333333), wk =   0.0322581
        k(   16) = (   0.0000000   0.0000000   0.0000000), wk =   0.0322581
        k(   17) = (  -0.0666667   0.0000000   0.0000000), wk =   0.0322581
        k(   18) = (  -0.1333333   0.0000000   0.0000000), wk =   0.0322581
        k(   19) = (  -0.2000000   0.0000000   0.0000000), wk =   0.0322581
        k(   20) = (  -0.2666667   0.0000000   0.0000000), wk =   0.0322581
        k(   21) = (  -0.3333333   0.0000000   0.0000000), wk =   0.0322581
        k(   22) = (  -0.4000000   0.0000000   0.0000000), wk =   0.0322581
        k(   23) = (  -0.4666667   0.0000000   0.0000000), wk =   0.0322581
        k(   24) = (  -0.5333333   0.0000000   0.0000000), wk =   0.0322581
        k(   25) = (  -0.6000000   0.0000000   0.0000000), wk =   0.0322581
        k(   26) = (  -0.6666667   0.0000000   0.0000000), wk =   0.0322581
        k(   27) = (  -0.7333333   0.0000000   0.0000000), wk =   0.0322581
        k(   28) = (  -0.8000000   0.0000000   0.0000000), wk =   0.0322581
        k(   29) = (  -0.8666667   0.0000000   0.0000000), wk =   0.0322581
        k(   30) = (  -0.9333333   0.0000000   0.0000000), wk =   0.0322581
        k(   31) = (  -1.0000000   0.0000000   0.0000000), wk =   0.0322581
        k(   32) = (  -1.0000000   0.0166667   0.0166667), wk =   0.0322581
        k(   33) = (  -1.0000000   0.0333333   0.0333333), wk =   0.0322581
        k(   34) = (  -1.0000000   0.0500000   0.0500000), wk =   0.0322581
        k(   35) = (  -1.0000000   0.0666667   0.0666667), wk =   0.0322581
        k(   36) = (  -1.0000000   0.0833333   0.0833333), wk =   0.0322581
        k(   37) = (  -1.0000000   0.1000000   0.1000000), wk =   0.0322581
        k(   38) = (  -1.0000000   0.1166667   0.1166667), wk =   0.0322581
        k(   39) = (  -1.0000000   0.1333333   0.1333333), wk =   0.0322581
        k(   40) = (  -1.0000000   0.1500000   0.1500000), wk =   0.0322581
        k(   41) = (  -1.0000000   0.1666667   0.1666667), wk =   0.0322581
        k(   42) = (  -1.0000000   0.1833333   0.1833333), wk =   0.0322581
        k(   43) = (  -1.0000000   0.2000000   0.2000000), wk =   0.0322581
        k(   44) = (  -1.0000000   0.2166667   0.2166667), wk =   0.0322581
        k(   45) = (  -1.0000000   0.2333333   0.2333333), wk =   0.0322581
        k(   46) = (  -1.0000000   0.2500000   0.2500000), wk =   0.0322581
        k(   47) = (  -0.7500000   0.0000000   0.7500000), wk =   0.0322581
        k(   48) = (  -0.7000000   0.0000000   0.7000000), wk =   0.0322581
        k(   49) = (  -0.6500000   0.0000000   0.6500000), wk =   0.0322581
        k(   50) = (  -0.6000000   0.0000000   0.6000000), wk =   0.0322581
        k(   51) = (  -0.5500000   0.0000000   0.5500000), wk =   0.0322581
        k(   52) = (  -0.5000000   0.0000000   0.5000000), wk =   0.0322581
        k(   53) = (  -0.4500000   0.0000000   0.4500000), wk =   0.0322581
        k(   54) = (  -0.4000000   0.0000000   0.4000000), wk =   0.0322581
        k(   55) = (  -0.3500000   0.0000000   0.3500000), wk =   0.0322581
        k(   56) = (  -0.3000000   0.0000000   0.3000000), wk =   0.0322581
        k(   57) = (  -0.2500000   0.0000000   0.2500000), wk =   0.0322581
        k(   58) = (  -0.2000000   0.0000000   0.2000000), wk =   0.0322581
        k(   59) = (  -0.1500000   0.0000000   0.1500000), wk =   0.0322581
        k(   60) = (  -0.1000000   0.0000000   0.1000000), wk =   0.0322581
        k(   61) = (  -0.0500000   0.0000000   0.0500000), wk =   0.0322581
        k(   62) = (   0.0000000   0.0000000   0.0000000), wk =   0.0322581

                       cryst. coord.
        k(    1) = (   0.5000000   0.5000000   0.5000000), wk =   0.0322581
        k(    2) = (   0.4666667   0.4666667   0.4666667), wk =   0.0322581
        k(    3) = (   0.4333333   0.4333333   0.4333333), wk =   0.0322581
        k(    4) = (   0.4000000   0.4000000   0.4000000), wk =   0.0322581
        k(    5) = (   0.3666667   0.3666667   0.3666667), wk =   0.0322581
        k(    6) = (   0.3333333   0.3333333   0.3333333), wk =   0.0322581
        k(    7) = (   0.3000000   0.3000000   0.3000000), wk =   0.0322581
        k(    8) = (   0.2666667   0.2666667   0.2666667), wk =   0.0322581
        k(    9) = (   0.2333333   0.2333333   0.2333333), wk =   0.0322581
        k(   10) = (   0.2000000   0.2000000   0.2000000), wk =   0.0322581
        k(   11) = (   0.1666667   0.1666667   0.1666667), wk =   0.0322581
        k(   12) = (   0.1333333   0.1333333   0.1333333), wk =   0.0322581
        k(   13) = (   0.1000000   0.1000000   0.1000000), wk =   0.0322581
        k(   14) = (   0.0666667   0.0666667   0.0666667), wk =   0.0322581
        k(   15) = (   0.0333333   0.0333333   0.0333333), wk =   0.0322581
        k(   16) = (   0.0000000   0.0000000   0.0000000), wk =   0.0322581
        k(   17) = (   0.0333333   0.0000000   0.0333333), wk =   0.0322581
        k(   18) = (   0.0666667   0.0000000   0.0666667), wk =   0.0322581
        k(   19) = (   0.1000000   0.0000000   0.1000000), wk =   0.0322581
        k(   20) = (   0.1333333   0.0000000   0.1333333), wk =   0.0322581
        k(   21) = (   0.1666667   0.0000000   0.1666667), wk =   0.0322581
        k(   22) = (   0.2000000   0.0000000   0.2000000), wk =   0.0322581
        k(   23) = (   0.2333333   0.0000000   0.2333333), wk =   0.0322581
        k(   24) = (   0.2666667   0.0000000   0.2666667), wk =   0.0322581
        k(   25) = (   0.3000000   0.0000000   0.3000000), wk =   0.0322581
        k(   26) = (   0.3333333   0.0000000   0.3333333), wk =   0.0322581
        k(   27) = (   0.3666667   0.0000000   0.3666667), wk =   0.0322581
        k(   28) = (   0.4000000   0.0000000   0.4000000), wk =   0.0322581
        k(   29) = (   0.4333333   0.0000000   0.4333333), wk =   0.0322581
        k(   30) = (   0.4666667   0.0000000   0.4666667), wk =   0.0322581
        k(   31) = (   0.5000000   0.0000000   0.5000000), wk =   0.0322581
        k(   32) = (   0.5083333   0.0166667   0.5083333), wk =   0.0322581
        k(   33) = (   0.5166667   0.0333333   0.5166667), wk =   0.0322581
        k(   34) = (   0.5250000   0.0500000   0.5250000), wk =   0.0322581
        k(   35) = (   0.5333333   0.0666667   0.5333333), wk =   0.0322581
        k(   36) = (   0.5416667   0.0833333   0.5416667), wk =   0.0322581
        k(   37) = (   0.5500000   0.1000000   0.5500000), wk =   0.0322581
        k(   38) = (   0.5583333   0.1166667   0.5583333), wk =   0.0322581
        k(   39) = (   0.5666667   0.1333333   0.5666667), wk =   0.0322581
        k(   40) = (   0.5750000   0.1500000   0.5750000), wk =   0.0322581
        k(   41) = (   0.5833333   0.1666667   0.5833333), wk =   0.0322581
        k(   42) = (   0.5916667   0.1833333   0.5916667), wk =   0.0322581
        k(   43) = (   0.6000000   0.2000000   0.6000000), wk =   0.0322581
        k(   44) = (   0.6083333   0.2166667   0.6083333), wk =   0.0322581
        k(   45) = (   0.6166667   0.2333333   0.6166667), wk =   0.0322581
        k(   46) = (   0.6250000   0.2500000   0.6250000), wk =   0.0322581
        k(   47) = (   0.7500000   0.3750000   0.3750000), wk =   0.0322581
        k(   48) = (   0.7000000   0.3500000   0.3500000), wk =   0.0322581
        k(   49) = (   0.6500000   0.3250000   0.3250000), wk =   0.0322581
        k(   50) = (   0.6000000   0.3000000   0.3000000), wk =   0.0322581
        k(   51) = (   0.5500000   0.2750000   0.2750000), wk =   0.0322581
        k(   52) = (   0.5000000   0.2500000   0.2500000), wk =   0.0322581
        k(   53) = (   0.4500000   0.2250000   0.2250000), wk =   0.0322581
        k(   54) = (   0.4000000   0.2000000   0.2000000), wk =   0.0322581
        k(   55) = (   0.3500000   0.1750000   0.1750000), wk =   0.0322581
        k(   56) = (   0.3000000   0.1500000   0.1500000), wk =   0.0322581
        k(   57) = (   0.2500000   0.1250000   0.1250000), wk =   0.0322581
        k(   58) = (   0.2000000   0.1000000   0.1000000), wk =   0.0322581
        k(   59) = (   0.1500000   0.0750000   0.0750000), wk =   0.0322581
        k(   60) = (   0.1000000   0.0500000   0.0500000), wk =   0.0322581
        k(   61) = (   0.0500000   0.0250000   0.0250000), wk =   0.0322581
        k(   62) = (   0.0000000   0.0000000   0.0000000), wk =   0.0322581

     Dense  grid:     9257 G-vectors     FFT dimensions: (  30,  30,  30)

     Dynamical RAM for                 wfc:       0.21 MB

     Dynamical RAM for     wfc (w. buffer):       0.21 MB

     Dynamical RAM for           str. fact:       0.14 MB

     Dynamical RAM for           local pot:       0.00 MB

     Dynamical RAM for          nlocal pot:       0.28 MB

     Dynamical RAM for                qrad:       0.29 MB

     Dynamical RAM for          rho,v,vnew:       1.04 MB

     Dynamical RAM for           G-vectors:       0.60 MB

     Dynamical RAM for          h,s,v(r/c):       0.03 MB

     Dynamical RAM for          <psi|beta>:       0.00 MB

     Dynamical RAM for                 psi:       0.42 MB

     Dynamical RAM for                hpsi:       0.42 MB

     Dynamical RAM for                spsi:       0.42 MB

     Dynamical RAM for      wfcinit/wfcrot:       0.43 MB

     Dynamical RAM for           addusdens:       6.36 MB

     Estimated static dynamical RAM per process >       3.88 MB

     Estimated max dynamical RAM per process >      10.24 MB

     Atomic positions and unit cell read from directory:
     ./silicon.save/
     Atomic positions from file used, from input discarded


     Check: negative core charge=   -0.000003

     The potential is recalculated from file :
     ./silicon.save/charge-density

     Starting wfcs are    8 randomized atomic wfcs +    4 random wfcs

     Band Structure Calculation
     Davidson diagonalization with overlap

     Computing kpt #:     1  of    62
     total cpu time spent up to now is        0.5 secs

     Computing kpt #:     2  of    62
     total cpu time spent up to now is        0.8 secs

     Computing kpt #:     3  of    62
     c_bands:  1 eigenvalues not converged
     total cpu time spent up to now is        1.2 secs

     Computing kpt #:     4  of    62
     c_bands:  1 eigenvalues not converged
     total cpu time spent up to now is        1.5 secs

     Computing kpt #:     5  of    62
     total cpu time spent up to now is        1.8 secs

     Computing kpt #:     6  of    62
     total cpu time spent up to now is        2.0 secs

     Computing kpt #:     7  of    62
     total cpu time spent up to now is        2.2 secs

     Computing kpt #:     8  of    62
     total cpu time spent up to now is        2.4 secs

     Computing kpt #:     9  of    62
     total cpu time spent up to now is        2.6 secs

     Computing kpt #:    10  of    62
     total cpu time spent up to now is        2.8 secs

     Computing kpt #:    11  of    62
     total cpu time spent up to now is        3.0 secs

     Computing kpt #:    12  of    62
     total cpu time spent up to now is        3.2 secs

     Computing kpt #:    13  of    62
     total cpu time spent up to now is        3.4 secs

     Computing kpt #:    14  of    62
     total cpu time spent up to now is        3.6 secs

     Computing kpt #:    15  of    62
     total cpu time spent up to now is        3.8 secs

     Computing kpt #:    16  of    62
     total cpu time spent up to now is        4.0 secs

     Computing kpt #:    17  of    62
     total cpu time spent up to now is        4.3 secs

     Computing kpt #:    18  of    62
     c_bands:  1 eigenvalues not converged
     total cpu time spent up to now is        4.6 secs

     Computing kpt #:    19  of    62
     total cpu time spent up to now is        4.9 secs

     Computing kpt #:    20  of    62
     total cpu time spent up to now is        5.3 secs

     Computing kpt #:    21  of    62
     total cpu time spent up to now is        5.5 secs

     Computing kpt #:    22  of    62
     c_bands:  1 eigenvalues not converged
     total cpu time spent up to now is        5.9 secs

     Computing kpt #:    23  of    62
     c_bands:  1 eigenvalues not converged
     total cpu time spent up to now is        6.2 secs

     Computing kpt #:    24  of    62
     total cpu time spent up to now is        6.5 secs

     Computing kpt #:    25  of    62
     c_bands:  1 eigenvalues not converged
     total cpu time spent up to now is        6.8 secs

     Computing kpt #:    26  of    62
     c_bands:  1 eigenvalues not converged
     total cpu time spent up to now is        7.2 secs

     Computing kpt #:    27  of    62
     total cpu time spent up to now is        7.5 secs

     Computing kpt #:    28  of    62
     total cpu time spent up to now is        7.8 secs

     Computing kpt #:    29  of    62
     total cpu time spent up to now is        8.1 secs

     Computing kpt #:    30  of    62
     total cpu time spent up to now is        8.4 secs

     Computing kpt #:    31  of    62
     total cpu time spent up to now is        8.8 secs

     Computing kpt #:    32  of    62
     total cpu time spent up to now is        9.1 secs

     Computing kpt #:    33  of    62
     total cpu time spent up to now is        9.4 secs

     Computing kpt #:    34  of    62
     total cpu time spent up to now is        9.7 secs

     Computing kpt #:    35  of    62
     total cpu time spent up to now is       10.0 secs

     Computing kpt #:    36  of    62
     total cpu time spent up to now is       10.4 secs

     Computing kpt #:    37  of    62
     total cpu time spent up to now is       10.7 secs

     Computing kpt #:    38  of    62
     c_bands:  2 eigenvalues not converged
     total cpu time spent up to now is       11.1 secs

     Computing kpt #:    39  of    62
     total cpu time spent up to now is       11.5 secs

     Computing kpt #:    40  of    62
     total cpu time spent up to now is       11.8 secs

     Computing kpt #:    41  of    62
     total cpu time spent up to now is       12.1 secs

     Computing kpt #:    42  of    62
     total cpu time spent up to now is       12.4 secs

     Computing kpt #:    43  of    62
     total cpu time spent up to now is       12.7 secs

     Computing kpt #:    44  of    62
     total cpu time spent up to now is       13.0 secs

     Computing kpt #:    45  of    62
     total cpu time spent up to now is       13.3 secs

     Computing kpt #:    46  of    62
     total cpu time spent up to now is       13.5 secs

     Computing kpt #:    47  of    62
     total cpu time spent up to now is       13.8 secs

     Computing kpt #:    48  of    62
     total cpu time spent up to now is       14.1 secs

     Computing kpt #:    49  of    62
     total cpu time spent up to now is       14.3 secs

     Computing kpt #:    50  of    62
     total cpu time spent up to now is       14.5 secs

     Computing kpt #:    51  of    62
     total cpu time spent up to now is       14.8 secs

     Computing kpt #:    52  of    62
     total cpu time spent up to now is       15.0 secs

     Computing kpt #:    53  of    62
     total cpu time spent up to now is       15.2 secs

     Computing kpt #:    54  of    62
     total cpu time spent up to now is       15.4 secs

     Computing kpt #:    55  of    62
     total cpu time spent up to now is       15.6 secs

     Computing kpt #:    56  of    62
     total cpu time spent up to now is       15.7 secs

     Computing kpt #:    57  of    62
     total cpu time spent up to now is       15.9 secs

     Computing kpt #:    58  of    62
     total cpu time spent up to now is       16.2 secs

     Computing kpt #:    59  of    62
     total cpu time spent up to now is       16.4 secs

     Computing kpt #:    60  of    62
     total cpu time spent up to now is       16.6 secs

     Computing kpt #:    61  of    62
     total cpu time spent up to now is       16.9 secs

     Computing kpt #:    62  of    62
     total cpu time spent up to now is       17.1 secs

     ethr =  1.25E-11,  avg # of iterations = 68.3

     total cpu time spent up to now is       17.1 secs

     End of band structure calculation

          k =-0.5000 0.5000 0.5000 (  1158 PWs)   bands (ev):

    -3.4714  -0.8464   4.9668   4.9671   7.6371   9.4539   9.4543  13.6926
    16.6975  16.6976  17.3814  17.4548

          k =-0.4667 0.4667 0.4667 (  1164 PWs)   bands (ev):

    -3.5347  -0.7555   4.9747   4.9750   7.6463   9.4635   9.4638  13.7076
    16.2966  16.2967  17.1621  17.8892

          k =-0.4333 0.4333 0.4333 (  1155 PWs)   bands (ev):

    -3.7023  -0.5053   4.9986   4.9989   7.6739   9.4910   9.4914  13.7508
    15.6977  15.6978  16.6860  18.5875

          k =-0.4000 0.4000 0.4000 (  1149 PWs)   bands (ev):

    -3.9302  -0.1401   5.0383   5.0386   7.7197   9.5328   9.5332  13.8147
    15.1163  15.1164  16.1374  19.3302

          k =-0.3667 0.3667 0.3667 (  1155 PWs)   bands (ev):

    -4.1828   0.3039   5.0937   5.0940   7.7832   9.5824   9.5827  13.8791
    14.5818  14.5819  15.5949  20.0661

          k =-0.3333 0.3333 0.3333 (  1149 PWs)   bands (ev):

    -4.4383   0.8038   5.1646   5.1649   7.8640   9.6293   9.6297  13.8834
    14.1104  14.1105  15.1355  19.6208

          k =-0.3000 0.3000 0.3000 (  1155 PWs)   bands (ev):

    -4.6841   1.3459   5.2506   5.2508   7.9610   9.6596   9.6599  13.6933
    13.7183  13.7184  14.8953  18.9327

          k =-0.2667 0.2667 0.2667 (  1164 PWs)   bands (ev):

    -4.9128   1.9207   5.3506   5.3509   8.0725   9.6564   9.6567  13.2695
    13.4230  13.4231  14.9048  18.1940

          k =-0.2333 0.2333 0.2333 (  1158 PWs)   bands (ev):

    -5.1201   2.5214   5.4633   5.4636   8.1962   9.6047   9.6050  12.7335
    13.2393  13.2394  15.0190  17.5019

          k =-0.2000 0.2000 0.2000 (  1167 PWs)   bands (ev):

    -5.3032   3.1410   5.5863   5.5866   8.3282   9.4988   9.4991  12.1567
    13.1720  13.1721  15.1087  16.9451

          k =-0.1667 0.1667 0.1667 (  1167 PWs)   bands (ev):

    -5.4602   3.7718   5.7159   5.7162   8.4626   9.3470   9.3473  11.5651
    13.2106  13.2107  15.0401  16.6495

          k =-0.1333 0.1333 0.1333 (  1173 PWs)   bands (ev):

    -5.5900   4.4024   5.8466   5.8469   8.5900   9.1693   9.1696  10.9745
    13.3314  13.3314  14.7696  16.6579

          k =-0.1000 0.1000 0.1000 (  1179 PWs)   bands (ev):

    -5.6916   5.0143   5.9698   5.9701   8.6953   8.9909   8.9911  10.4084
    13.5016  13.5016  14.4298  16.8334

          k =-0.0667 0.0667 0.0667 (  1179 PWs)   bands (ev):

    -5.7645   5.5715   6.0740   6.0744   8.7527   8.8376   8.8378   9.9157
    13.6812  13.6812  14.1363  17.0466

          k =-0.0333 0.0333 0.0333 (  1157 PWs)   bands (ev):

    -5.8084   5.9999   6.1453   6.1456   8.7332   8.7335   8.7340   9.5860
    13.8222  13.8222  13.9436  17.2153

          k = 0.0000 0.0000 0.0000 (  1139 PWs)   bands (ev):

    -5.8231   6.1707   6.1711   6.1711   8.6961   8.6961   8.6963   9.4806
    13.8765  13.8765  13.8768  17.2798

          k =-0.0667 0.0000 0.0000 (  1167 PWs)   bands (ev):

    -5.8036   6.0399   6.0873   6.0875   8.6456   8.8035   8.8037   9.6084
    13.7136  13.8981  13.9657  17.3140

          k =-0.1333 0.0000 0.0000 (  1171 PWs)   bands (ev):

    -5.7450   5.6969   5.8714   5.8716   8.5047   9.0907   9.0908   9.9302
    13.3134  13.9627  14.2214  17.4165

          k =-0.2000 0.0000 0.0000 (  1171 PWs)   bands (ev):

    -5.6475   5.2290   5.5856   5.5858   8.2990   9.4946   9.4947  10.3090
    12.8569  14.0703  14.6171  17.5868

          k =-0.2667 0.0000 0.0000 (  1163 PWs)   bands (ev):

    -5.5113   4.6960   5.2747   5.2749   8.0569   9.9695   9.9695  10.5393
    12.5796  14.2210  15.1228  17.8234

          k =-0.3333 0.0000 0.0000 (  1162 PWs)   bands (ev):

    -5.3369   4.1292   4.9638   4.9640   7.8019  10.3973  10.4890  10.4890
    12.7222  14.4145  15.7116  18.1232

          k =-0.4000 0.0000 0.0000 (  1170 PWs)   bands (ev):

    -5.1245   3.5444   4.6666   4.6667   7.5517   9.9723  11.0384  11.0384
    13.2043  14.6510  16.3609  18.4792

          k =-0.4667 0.0000 0.0000 (  1162 PWs)   bands (ev):

    -4.8749   2.9500   4.3908   4.3909   7.3186   9.4610  11.6089  11.6089
    13.8333  14.9302  17.0497  18.8750

          k =-0.5333 0.0000 0.0000 (  1158 PWs)   bands (ev):

    -4.5887   2.3512   4.1413   4.1414   7.1111   8.9513  12.1951  12.1951
    14.5207  15.2520  17.7549  19.2722

          k =-0.6000 0.0000 0.0000 (  1146 PWs)   bands (ev):

    -4.2668   1.7518   3.9210   3.9211   6.9357   8.4765  12.7938  12.7938
    15.2301  15.6163  18.4450  19.5753

          k =-0.6667 0.0000 0.0000 (  1150 PWs)   bands (ev):

    -3.9103   1.1554   3.7322   3.7323   6.7971   8.0508  13.4029  13.4029
    15.9419  16.0229  19.0710  19.6044

          k =-0.7333 0.0000 0.0000 (  1150 PWs)   bands (ev):

    -3.5203   0.5654   3.5761   3.5762   6.6989   7.6801  14.0211  14.0211
    16.4716  16.6428  19.2731  19.2732

          k =-0.8000 0.0000 0.0000 (  1154 PWs)   bands (ev):

    -3.0984  -0.0147   3.4538   3.4539   6.6443   7.3667  14.6463  14.6463
    16.9622  17.3221  18.7241  18.7242

          k =-0.8667 0.0000 0.0000 (  1154 PWs)   bands (ev):

    -2.6464  -0.5812   3.3660   3.3661   6.6359   7.1109  15.2724  15.2724
    17.4942  17.9693  18.0990  18.0990

          k =-0.9333 0.0000 0.0000 (  1162 PWs)   bands (ev):

    -2.1661  -1.1307   3.3132   3.3133   6.6762   6.9117  15.8720  15.8720
    17.4852  17.4852  18.0673  18.5711

          k =-1.0000 0.0000 0.0000 (  1162 PWs)   bands (ev):

    -1.6601  -1.6599   3.2955   3.2956   6.7673   6.7675  16.2332  16.2333
    17.1172  17.1173  18.6811  18.6813

          k =-1.0000 0.0167 0.0167 (  1162 PWs)   bands (ev):

    -1.6608  -1.6575   3.2780   3.2976   6.7697   6.7928  16.2057  16.2183
    17.0770  17.0859  18.7103  18.7121

          k =-1.0000 0.0333 0.0333 (  1156 PWs)   bands (ev):

    -1.6637  -1.6496   3.2272   3.3035   6.7766   6.8676  16.1268  16.1744
    16.9658  16.9984  18.7943  18.7979

          k =-1.0000 0.0500 0.0500 (  1156 PWs)   bands (ev):

    -1.6687  -1.6364   3.1475   3.3133   6.7880   6.9874  16.0057  16.1040
    16.8033  16.8695  18.9238  18.9242

          k =-1.0000 0.0667 0.0667 (  1152 PWs)   bands (ev):

    -1.6760  -1.6180   3.0452   3.3271   6.8039   7.1463  15.8529  16.0108
    16.6085  16.7130  19.0767  19.0882

          k =-1.0000 0.0833 0.0833 (  1142 PWs)   bands (ev):

    -1.6861  -1.5943   2.9266   3.3447   6.8244   7.3381  15.6778  15.8988
    16.3944  16.5392  19.2453  19.2780

          k =-1.0000 0.1000 0.1000 (  1146 PWs)   bands (ev):

    -1.6993  -1.5654   2.7978   3.3662   6.8493   7.5573  15.4875  15.7715
    16.1693  16.3549  19.4234  19.4859

          k =-1.0000 0.1167 0.1167 (  1142 PWs)   bands (ev):

    -1.7163  -1.5313   2.6640   3.3915   6.8787   7.7991  15.2871  15.6323
    15.9384  16.1643  19.6065  19.6763

          k =-1.0000 0.1333 0.1333 (  1150 PWs)   bands (ev):

    -1.7377  -1.4919   2.5295   3.4206   6.9125   8.0597  15.0803  15.4841
    15.7051  15.9704  19.7918  19.8148

          k =-1.0000 0.1500 0.1500 (  1154 PWs)   bands (ev):

    -1.7642  -1.4472   2.3980   3.4535   6.9507   8.3362  14.8696  15.3290
    15.4714  15.7750  19.9584  19.9774

          k =-1.0000 0.1667 0.1667 (  1152 PWs)   bands (ev):

    -1.7965  -1.3974   2.2725   3.4901   6.9933   8.6261  14.6570  15.1690
    15.2387  15.5797  20.1048  20.1622

          k =-1.0000 0.1833 0.1833 (  1152 PWs)   bands (ev):

    -1.8354  -1.3423   2.1555   3.5303   7.0401   8.9275  14.4438  15.0056
    15.0083  15.3854  20.2519  20.3451

          k =-1.0000 0.2000 0.2000 (  1144 PWs)   bands (ev):

    -1.8814  -1.2820   2.0490   3.5741   7.0911   9.2387  14.2310  14.7808
    14.8401  15.1930  20.3971  20.5256

          k =-1.0000 0.2167 0.2167 (  1144 PWs)   bands (ev):

    -1.9352  -1.2165   1.9546   3.6214   7.1462   9.5585  14.0195  14.5570
    14.6733  15.0032  20.5371  20.7033

          k =-1.0000 0.2333 0.2333 (  1144 PWs)   bands (ev):

    -1.9972  -1.1459   1.8736   3.6722   7.2053   9.8856  13.8097  14.3374
    14.5063  14.8166  20.6661  20.8781

          k =-1.0000 0.2500 0.2500 (  1144 PWs)   bands (ev):

    -2.0676  -1.0700   1.8069   3.7262   7.2684  10.2187  13.6022  14.1229
    14.3398  14.6335  20.7723  21.0498

          k =-0.7500 0.0000 0.7500 (  1144 PWs)   bands (ev):

    -2.0677  -1.0698   1.8070   3.7261   7.2683  10.2189  13.6024  14.1228
    14.3399  14.6334  20.7724  21.0497

          k =-0.7000 0.0000 0.7000 (  1142 PWs)   bands (ev):

    -2.3277  -0.8114   1.6961   3.9071   7.4797  11.2375  12.9973  13.5209
    13.8491  14.1098  20.7147  21.3329

          k =-0.6500 0.0000 0.6500 (  1141 PWs)   bands (ev):

    -2.6498  -0.5068   1.7146   4.1136   7.7209  12.1482  12.4233  13.1085
    13.3818  13.6319  20.2124  20.7538

          k =-0.6000 0.0000 0.6000 (  1145 PWs)   bands (ev):

    -3.0117  -0.1568   1.8456   4.3411   7.9857  11.8845  12.1402  12.9495
    13.2081  13.6786  19.6669  20.2224

          k =-0.5500 0.0000 0.5500 (  1147 PWs)   bands (ev):

    -3.3905   0.2381   2.0685   4.5837   8.2643  11.3839  11.6910  12.5637
    12.8464  14.7225  19.1465  19.7710

          k =-0.5000 0.0000 0.5000 (  1159 PWs)   bands (ev):

    -3.7676   0.6770   2.3653   4.8340   8.5422  10.9234  11.2341  12.2374
    12.5556  15.7319  18.6514  19.3252

          k =-0.4500 0.0000 0.4500 (  1151 PWs)   bands (ev):

    -4.1295   1.1589   2.7218   5.0832   8.7984  10.5042  10.8073  11.9866
    12.3445  16.4868  17.9848  18.3813

          k =-0.4000 0.0000 0.4000 (  1151 PWs)   bands (ev):

    -4.4672   1.6822   3.1261   5.3214   9.0055  10.1273  10.4172  11.8270
    12.2224  16.7468  16.9118  17.9438

          k =-0.3500 0.0000 0.3500 (  1153 PWs)   bands (ev):

    -4.7742   2.2449   3.5677   5.5386   9.1381   9.7936  10.0653  11.7604
    12.1975  15.8506  16.5838  17.6244

          k =-0.3000 0.0000 0.3000 (  1157 PWs)   bands (ev):

    -5.0463   2.8441   4.0351   5.7262   9.1883   9.5034   9.7515  11.7444
    12.2748  14.8982  16.2077  17.3779

          k =-0.2500 0.0000 0.2500 (  1159 PWs)   bands (ev):

    -5.2802   3.4750   4.5151   5.8788   9.1718   9.2573   9.4744  11.6550
    12.4537  14.1596  15.7240  17.2060

          k =-0.2000 0.0000 0.2000 (  1165 PWs)   bands (ev):

    -5.4740   4.1294   4.9898   5.9951   9.0556   9.1145   9.2325  11.3185
    12.7246  13.7719  15.1955  17.1143

          k =-0.1500 0.0000 0.1500 (  1169 PWs)   bands (ev):

    -5.6260   4.7915   5.4342   6.0778   8.8985   9.0253   9.0356  10.7369
    13.0657  13.7049  14.6859  17.1043

          k =-0.1000 0.0000 0.1000 (  1179 PWs)   bands (ev):

    -5.7353   5.4263   5.8122   6.1316   8.7862   8.8565   8.9355  10.1053
    13.4335  13.7725  14.2602  17.1612

          k =-0.0500 0.0000 0.0500 (  1173 PWs)   bands (ev):

    -5.8011   5.9482   6.0751   6.1614   8.7187   8.7394   8.7949   9.6374
    13.7462  13.8472  13.9766  17.2414

          k = 0.0000 0.0000 0.0000 (  1139 PWs)   bands (ev):

    -5.8231   6.1707   6.1711   6.1711   8.6961   8.6961   8.6963   9.4806
    13.8765  13.8765  13.8768  17.2798

     Writing all to output data dir ./silicon.save/ :
     XML data file, pseudopotentials, collected wavefunctions

     init_run     :      0.12s CPU      0.13s WALL (       1 calls)
     electrons    :     16.70s CPU     16.89s WALL (       1 calls)

     Called by init_run:
     wfcinit      :      0.00s CPU      0.00s WALL (       1 calls)
     wfcinit:atom :      0.00s CPU      0.01s WALL (      62 calls)
     wfcinit:wfcr :      0.38s CPU      0.39s WALL (      62 calls)
     potinit      :      0.01s CPU      0.01s WALL (       1 calls)
     hinit0       :      0.10s CPU      0.11s WALL (       1 calls)

     Called by electrons:
     c_bands      :     16.70s CPU     16.89s WALL (       1 calls)
     v_of_rho     :      0.01s CPU      0.01s WALL (       1 calls)
     v_h          :      0.00s CPU      0.00s WALL (       1 calls)
     v_xc         :      0.01s CPU      0.01s WALL (       1 calls)
     newd         :      0.00s CPU      0.01s WALL (       1 calls)

     Called by c_bands:
     init_us_2    :      0.01s CPU      0.01s WALL (      62 calls)
     cegterg      :     16.28s CPU     16.45s WALL (     232 calls)

     Called by sum_band:

     Called by *egterg:
     cdiaghg      :      0.49s CPU      0.50s WALL (    4297 calls)
     cegterg:over :      1.19s CPU      1.21s WALL (    4235 calls)
     cegterg:upda :      0.66s CPU      0.67s WALL (    4235 calls)
     cegterg:last :      1.78s CPU      1.80s WALL (    2114 calls)
     h_psi        :     11.76s CPU     11.89s WALL (    4529 calls)
     s_psi        :      0.45s CPU      0.46s WALL (    4529 calls)
     g_psi        :      0.09s CPU      0.09s WALL (    4235 calls)

     Called by h_psi:
     h_psi:calbec :      0.51s CPU      0.51s WALL (    4529 calls)
     vloc_psi     :     10.76s CPU     10.88s WALL (    4529 calls)
     add_vuspsi   :      0.45s CPU      0.46s WALL (    4529 calls)

     General routines
     calbec       :      0.50s CPU      0.51s WALL (    4529 calls)
     fft          :      0.00s CPU      0.00s WALL (      12 calls)
     fftw         :      9.93s CPU     10.04s WALL (   52412 calls)
     davcio       :      0.01s CPU      0.01s WALL (     124 calls)


     PWSCF        :     16.88s CPU     17.10s WALL


   This run was terminated on:  18:56:50  19Dec2024            

=------------------------------------------------------------------------------=
   JOB DONE.
=------------------------------------------------------------------------------=
